1408
Lattice="34.224 0.0 0.0 0.0 39.52 0.0 0.0 0.0 29.999999999999996" Properties=species:S:1:pos:R:3 ipi_comment="Step:           0  Bead:       0 positions{ase}  cell{ase}" pbc="T T T"
C        6.06155000       5.54744000      17.50254000
C        6.77455000       6.78244000      17.50254000
C        6.06155000       8.01744000      17.50254000
C        6.77455000       9.25244000      17.50254000
C        8.19845000       6.78244000      17.50254000
C        4.63345000       8.01744000      17.50254000
C        8.19845000       9.25244000      17.50254000
C        4.63345000       5.54744000      17.50254000
C        6.05945000       5.56756000      12.49746000
C        6.77245000       6.80256000      12.49746000
C        6.05945000       8.03756000      12.49746000
C        6.77245000       9.27256000      12.49746000
C        8.20055000       6.80256000      12.49746000
C        4.63555000       8.03756000      12.49746000
C        8.20055000       9.27256000      12.49746000
C        4.63555000       5.56756000      12.49746000
O        1.04379682       9.14575081      14.92329330
H        1.15369322       8.40318909      15.52216803
H        1.87063279       9.69011939      14.97932186
O        7.46139643       0.73524712      15.07662369
H        7.57241287       1.47835676      14.47865400
H        8.28774230       0.19012232      15.02056906
C        1.78355000       0.60744000      17.50254000
C        2.49655000       1.84244000      17.50254000
C        1.78355000       3.07744000      17.50254000
C        2.49655000       4.31244000      17.50254000
C        3.92045000       1.84244000      17.50254000
C        0.35545000       3.07744000      17.50254000
C        3.92045000       4.31244000      17.50254000
C        0.35545000       0.60744000      17.50254000
C        1.78145000       0.62756000      12.49746000
C        2.49445000       1.86256000      12.49746000
C        1.78145000       3.09756000      12.49746000
C        2.49445000       4.33256000      12.49746000
C        3.92255000       1.86256000      12.49746000
C        0.35755000       3.09756000      12.49746000
C        3.92255000       4.33256000      12.49746000
C        0.35755000       0.62756000      12.49746000
O        5.32308669       9.14577864      14.92337159
H        5.43461858       8.40364774      15.52247536
H        6.14921502       9.69132071      14.97867887
O        5.32219010       4.20480354      14.92329982
H        5.43272138       3.46204354      15.52178821
H        6.14866549       4.74972000      14.97939300
C        1.78355000       5.54744000      17.50254000
C        2.49655000       6.78244000      17.50254000
C        1.78355000       8.01744000      17.50254000
C        2.49655000       9.25244000      17.50254000
C        3.92045000       6.78244000      17.50254000
C        0.35545000       8.01744000      17.50254000
C        3.92045000       9.25244000      17.50254000
C        0.35545000       5.54744000      17.50254000
C        1.78145000       5.56756000      12.49746000
C        2.49445000       6.80256000      12.49746000
C        1.78145000       8.03756000      12.49746000
C        2.49445000       9.27256000      12.49746000
C        3.92255000       6.80256000      12.49746000
C        0.35755000       8.03756000      12.49746000
C        3.92255000       9.27256000      12.49746000
C        0.35755000       5.56756000      12.49746000
O        1.04401154       4.20586589      14.92330298
H        1.87062734       4.75056933      14.97910304
H        1.15418443       3.46370056      15.52260335
O        3.18339174       0.73364224      15.07676553
H        3.29359972       1.47592781      14.47762052
H        4.01009677       0.18904909      15.02110208
C        6.06155000       0.60744000      17.50254000
C        6.77455000       1.84244000      17.50254000
C        6.06155000       3.07744000      17.50254000
C        6.77455000       4.31244000      17.50254000
C        8.19845000       1.84244000      17.50254000
C        4.63345000       3.07744000      17.50254000
C        8.19845000       4.31244000      17.50254000
C        4.63345000       0.60744000      17.50254000
C        6.05945000       0.62756000      12.49746000
C        6.77245000       1.86256000      12.49746000
C        6.05945000       3.09756000      12.49746000
C        6.77245000       4.33256000      12.49746000
C        8.20055000       1.86256000      12.49746000
C        4.63555000       3.09756000      12.49746000
C        8.20055000       4.33256000      12.49746000
C        4.63555000       0.62756000      12.49746000
O        3.18342379       5.67413472      15.07662447
H        3.29444142       6.41654494      14.47776337
H        4.00974883       5.12899862      15.02096864
O        7.46077090       5.67423137      15.07677881
H        8.28751185       5.12971499      15.02078172
H        7.57040179       6.41613744      14.47705486
C        6.06155000      15.42744000      17.50254000
C        6.77455000      16.66244000      17.50254000
C        6.06155000      17.89744000      17.50254000
C        6.77455000      19.13244000      17.50254000
C        8.19845000      16.66244000      17.50254000
C        4.63345000      17.89744000      17.50254000
C        8.19845000      19.13244000      17.50254000
C        4.63345000      15.42744000      17.50254000
C        6.05945000      15.44756000      12.49746000
C        6.77245000      16.68256000      12.49746000
C        6.05945000      17.91756000      12.49746000
C        6.77245000      19.15256000      12.49746000
C        8.20055000      16.68256000      12.49746000
C        4.63555000      17.91756000      12.49746000
C        8.20055000      19.15256000      12.49746000
C        4.63555000      15.44756000      12.49746000
O        1.04379682      19.02575081      14.92329330
H        1.15369322      18.28318909      15.52216803
H        1.87063279      19.57011939      14.97932186
O        7.46139643      10.61524712      15.07662369
H        7.57241287      11.35835676      14.47865400
H        8.28774230      10.07012232      15.02056906
C        1.78355000      10.48744000      17.50254000
C        2.49655000      11.72244000      17.50254000
C        1.78355000      12.95744000      17.50254000
C        2.49655000      14.19244000      17.50254000
C        3.92045000      11.72244000      17.50254000
C        0.35545000      12.95744000      17.50254000
C        3.92045000      14.19244000      17.50254000
C        0.35545000      10.48744000      17.50254000
C        1.78145000      10.50756000      12.49746000
C        2.49445000      11.74256000      12.49746000
C        1.78145000      12.97756000      12.49746000
C        2.49445000      14.21256000      12.49746000
C        3.92255000      11.74256000      12.49746000
C        0.35755000      12.97756000      12.49746000
C        3.92255000      14.21256000      12.49746000
C        0.35755000      10.50756000      12.49746000
O        5.32308669      19.02577864      14.92337159
H        5.43461858      18.28364774      15.52247536
H        6.14921502      19.57132071      14.97867887
O        5.32219010      14.08480354      14.92329982
H        5.43272138      13.34204354      15.52178821
H        6.14866549      14.62972000      14.97939300
C        1.78355000      15.42744000      17.50254000
C        2.49655000      16.66244000      17.50254000
C        1.78355000      17.89744000      17.50254000
C        2.49655000      19.13244000      17.50254000
C        3.92045000      16.66244000      17.50254000
C        0.35545000      17.89744000      17.50254000
C        3.92045000      19.13244000      17.50254000
C        0.35545000      15.42744000      17.50254000
C        1.78145000      15.44756000      12.49746000
C        2.49445000      16.68256000      12.49746000
C        1.78145000      17.91756000      12.49746000
C        2.49445000      19.15256000      12.49746000
C        3.92255000      16.68256000      12.49746000
C        0.35755000      17.91756000      12.49746000
C        3.92255000      19.15256000      12.49746000
C        0.35755000      15.44756000      12.49746000
O        1.04401154      14.08586589      14.92330298
H        1.87062734      14.63056933      14.97910304
H        1.15418443      13.34370056      15.52260335
O        3.18339174      10.61364224      15.07676553
H        3.29359972      11.35592781      14.47762052
H        4.01009677      10.06904909      15.02110208
C        6.06155000      10.48744000      17.50254000
C        6.77455000      11.72244000      17.50254000
C        6.06155000      12.95744000      17.50254000
C        6.77455000      14.19244000      17.50254000
C        8.19845000      11.72244000      17.50254000
C        4.63345000      12.95744000      17.50254000
C        8.19845000      14.19244000      17.50254000
C        4.63345000      10.48744000      17.50254000
C        6.05945000      10.50756000      12.49746000
C        6.77245000      11.74256000      12.49746000
C        6.05945000      12.97756000      12.49746000
C        6.77245000      14.21256000      12.49746000
C        8.20055000      11.74256000      12.49746000
C        4.63555000      12.97756000      12.49746000
C        8.20055000      14.21256000      12.49746000
C        4.63555000      10.50756000      12.49746000
O        3.18342379      15.55413472      15.07662447
H        3.29444142      16.29654494      14.47776337
H        4.00974883      15.00899862      15.02096864
O        7.46077090      15.55423137      15.07677881
H        8.28751185      15.00971499      15.02078172
H        7.57040179      16.29613744      14.47705486
C        6.06155000      25.30744000      17.50254000
C        6.77455000      26.54244000      17.50254000
C        6.06155000      27.77744000      17.50254000
C        6.77455000      29.01244000      17.50254000
C        8.19845000      26.54244000      17.50254000
C        4.63345000      27.77744000      17.50254000
C        8.19845000      29.01244000      17.50254000
C        4.63345000      25.30744000      17.50254000
C        6.05945000      25.32756000      12.49746000
C        6.77245000      26.56256000      12.49746000
C        6.05945000      27.79756000      12.49746000
C        6.77245000      29.03256000      12.49746000
C        8.20055000      26.56256000      12.49746000
C        4.63555000      27.79756000      12.49746000
C        8.20055000      29.03256000      12.49746000
C        4.63555000      25.32756000      12.49746000
O        1.04379682      28.90575081      14.92329330
H        1.15369322      28.16318909      15.52216803
H        1.87063279      29.45011939      14.97932186
O        7.46139643      20.49524712      15.07662369
H        7.57241287      21.23835676      14.47865400
H        8.28774230      19.95012232      15.02056906
C        1.78355000      20.36744000      17.50254000
C        2.49655000      21.60244000      17.50254000
C        1.78355000      22.83744000      17.50254000
C        2.49655000      24.07244000      17.50254000
C        3.92045000      21.60244000      17.50254000
C        0.35545000      22.83744000      17.50254000
C        3.92045000      24.07244000      17.50254000
C        0.35545000      20.36744000      17.50254000
C        1.78145000      20.38756000      12.49746000
C        2.49445000      21.62256000      12.49746000
C        1.78145000      22.85756000      12.49746000
C        2.49445000      24.09256000      12.49746000
C        3.92255000      21.62256000      12.49746000
C        0.35755000      22.85756000      12.49746000
C        3.92255000      24.09256000      12.49746000
C        0.35755000      20.38756000      12.49746000
O        5.32308669      28.90577864      14.92337159
H        5.43461858      28.16364774      15.52247536
H        6.14921502      29.45132071      14.97867887
O        5.32219010      23.96480354      14.92329982
H        5.43272138      23.22204354      15.52178821
H        6.14866549      24.50972000      14.97939300
C        1.78355000      25.30744000      17.50254000
C        2.49655000      26.54244000      17.50254000
C        1.78355000      27.77744000      17.50254000
C        2.49655000      29.01244000      17.50254000
C        3.92045000      26.54244000      17.50254000
C        0.35545000      27.77744000      17.50254000
C        3.92045000      29.01244000      17.50254000
C        0.35545000      25.30744000      17.50254000
C        1.78145000      25.32756000      12.49746000
C        2.49445000      26.56256000      12.49746000
C        1.78145000      27.79756000      12.49746000
C        2.49445000      29.03256000      12.49746000
C        3.92255000      26.56256000      12.49746000
C        0.35755000      27.79756000      12.49746000
C        3.92255000      29.03256000      12.49746000
C        0.35755000      25.32756000      12.49746000
O        1.04401154      23.96586589      14.92330298
H        1.87062734      24.51056933      14.97910304
H        1.15418443      23.22370056      15.52260335
O        3.18339174      20.49364224      15.07676553
H        3.29359972      21.23592781      14.47762052
H        4.01009677      19.94904909      15.02110208
C        6.06155000      20.36744000      17.50254000
C        6.77455000      21.60244000      17.50254000
C        6.06155000      22.83744000      17.50254000
C        6.77455000      24.07244000      17.50254000
C        8.19845000      21.60244000      17.50254000
C        4.63345000      22.83744000      17.50254000
C        8.19845000      24.07244000      17.50254000
C        4.63345000      20.36744000      17.50254000
C        6.05945000      20.38756000      12.49746000
C        6.77245000      21.62256000      12.49746000
C        6.05945000      22.85756000      12.49746000
C        6.77245000      24.09256000      12.49746000
C        8.20055000      21.62256000      12.49746000
C        4.63555000      22.85756000      12.49746000
C        8.20055000      24.09256000      12.49746000
C        4.63555000      20.38756000      12.49746000
O        3.18342379      25.43413472      15.07662447
H        3.29444142      26.17654494      14.47776337
H        4.00974883      24.88899862      15.02096864
O        7.46077090      25.43423137      15.07677881
H        8.28751185      24.88971499      15.02078172
H        7.57040179      26.17613744      14.47705486
C        6.06155000      35.18744000      17.50254000
C        6.77455000      36.42244000      17.50254000
C        6.06155000      37.65744000      17.50254000
C        6.77455000      38.89244000      17.50254000
C        8.19845000      36.42244000      17.50254000
C        4.63345000      37.65744000      17.50254000
C        8.19845000      38.89244000      17.50254000
C        4.63345000      35.18744000      17.50254000
C        6.05945000      35.20756000      12.49746000
C        6.77245000      36.44256000      12.49746000
C        6.05945000      37.67756000      12.49746000
C        6.77245000      38.91256000      12.49746000
C        8.20055000      36.44256000      12.49746000
C        4.63555000      37.67756000      12.49746000
C        8.20055000      38.91256000      12.49746000
C        4.63555000      35.20756000      12.49746000
O        1.04379682      38.78575081      14.92329330
H        1.15369322      38.04318909      15.52216803
H        1.87063279      39.33011939      14.97932186
O        7.46139643      30.37524712      15.07662369
H        7.57241287      31.11835676      14.47865400
H        8.28774230      29.83012232      15.02056906
C        1.78355000      30.24744000      17.50254000
C        2.49655000      31.48244000      17.50254000
C        1.78355000      32.71744000      17.50254000
C        2.49655000      33.95244000      17.50254000
C        3.92045000      31.48244000      17.50254000
C        0.35545000      32.71744000      17.50254000
C        3.92045000      33.95244000      17.50254000
C        0.35545000      30.24744000      17.50254000
C        1.78145000      30.26756000      12.49746000
C        2.49445000      31.50256000      12.49746000
C        1.78145000      32.73756000      12.49746000
C        2.49445000      33.97256000      12.49746000
C        3.92255000      31.50256000      12.49746000
C        0.35755000      32.73756000      12.49746000
C        3.92255000      33.97256000      12.49746000
C        0.35755000      30.26756000      12.49746000
O        5.32308669      38.78577864      14.92337159
H        5.43461858      38.04364774      15.52247536
H        6.14921502      39.33132071      14.97867887
O        5.32219010      33.84480354      14.92329982
H        5.43272138      33.10204354      15.52178821
H        6.14866549      34.38972000      14.97939300
C        1.78355000      35.18744000      17.50254000
C        2.49655000      36.42244000      17.50254000
C        1.78355000      37.65744000      17.50254000
C        2.49655000      38.89244000      17.50254000
C        3.92045000      36.42244000      17.50254000
C        0.35545000      37.65744000      17.50254000
C        3.92045000      38.89244000      17.50254000
C        0.35545000      35.18744000      17.50254000
C        1.78145000      35.20756000      12.49746000
C        2.49445000      36.44256000      12.49746000
C        1.78145000      37.67756000      12.49746000
C        2.49445000      38.91256000      12.49746000
C        3.92255000      36.44256000      12.49746000
C        0.35755000      37.67756000      12.49746000
C        3.92255000      38.91256000      12.49746000
C        0.35755000      35.20756000      12.49746000
O        1.04401154      33.84586589      14.92330298
H        1.87062734      34.39056933      14.97910304
H        1.15418443      33.10370056      15.52260335
O        3.18339174      30.37364224      15.07676553
H        3.29359972      31.11592781      14.47762052
H        4.01009677      29.82904909      15.02110208
C        6.06155000      30.24744000      17.50254000
C        6.77455000      31.48244000      17.50254000
C        6.06155000      32.71744000      17.50254000
C        6.77455000      33.95244000      17.50254000
C        8.19845000      31.48244000      17.50254000
C        4.63345000      32.71744000      17.50254000
C        8.19845000      33.95244000      17.50254000
C        4.63345000      30.24744000      17.50254000
C        6.05945000      30.26756000      12.49746000
C        6.77245000      31.50256000      12.49746000
C        6.05945000      32.73756000      12.49746000
C        6.77245000      33.97256000      12.49746000
C        8.20055000      31.50256000      12.49746000
C        4.63555000      32.73756000      12.49746000
C        8.20055000      33.97256000      12.49746000
C        4.63555000      30.26756000      12.49746000
O        3.18342379      35.31413472      15.07662447
H        3.29444142      36.05654494      14.47776337
H        4.00974883      34.76899862      15.02096864
O        7.46077090      35.31423137      15.07677881
H        8.28751185      34.76971499      15.02078172
H        7.57040179      36.05613744      14.47705486
C       14.61755000       5.54744000      17.50254000
C       15.33055000       6.78244000      17.50254000
C       14.61755000       8.01744000      17.50254000
C       15.33055000       9.25244000      17.50254000
C       16.75445000       6.78244000      17.50254000
C       13.18945000       8.01744000      17.50254000
C       16.75445000       9.25244000      17.50254000
C       13.18945000       5.54744000      17.50254000
C       14.61545000       5.56756000      12.49746000
C       15.32845000       6.80256000      12.49746000
C       14.61545000       8.03756000      12.49746000
C       15.32845000       9.27256000      12.49746000
C       16.75655000       6.80256000      12.49746000
C       13.19155000       8.03756000      12.49746000
C       16.75655000       9.27256000      12.49746000
C       13.19155000       5.56756000      12.49746000
O        9.59979682       9.14575081      14.92329330
H        9.70969322       8.40318909      15.52216803
H       10.42663279       9.69011939      14.97932186
O       16.01739643       0.73524712      15.07662369
H       16.12841287       1.47835676      14.47865400
H       16.84374230       0.19012232      15.02056906
C       10.33955000       0.60744000      17.50254000
C       11.05255000       1.84244000      17.50254000
C       10.33955000       3.07744000      17.50254000
C       11.05255000       4.31244000      17.50254000
C       12.47645000       1.84244000      17.50254000
C        8.91145000       3.07744000      17.50254000
C       12.47645000       4.31244000      17.50254000
C        8.91145000       0.60744000      17.50254000
C       10.33745000       0.62756000      12.49746000
C       11.05045000       1.86256000      12.49746000
C       10.33745000       3.09756000      12.49746000
C       11.05045000       4.33256000      12.49746000
C       12.47855000       1.86256000      12.49746000
C        8.91355000       3.09756000      12.49746000
C       12.47855000       4.33256000      12.49746000
C        8.91355000       0.62756000      12.49746000
O       13.87908669       9.14577864      14.92337159
H       13.99061858       8.40364774      15.52247536
H       14.70521502       9.69132071      14.97867887
O       13.87819010       4.20480354      14.92329982
H       13.98872138       3.46204354      15.52178821
H       14.70466549       4.74972000      14.97939300
C       10.33955000       5.54744000      17.50254000
C       11.05255000       6.78244000      17.50254000
C       10.33955000       8.01744000      17.50254000
C       11.05255000       9.25244000      17.50254000
C       12.47645000       6.78244000      17.50254000
C        8.91145000       8.01744000      17.50254000
C       12.47645000       9.25244000      17.50254000
C        8.91145000       5.54744000      17.50254000
C       10.33745000       5.56756000      12.49746000
C       11.05045000       6.80256000      12.49746000
C       10.33745000       8.03756000      12.49746000
C       11.05045000       9.27256000      12.49746000
C       12.47855000       6.80256000      12.49746000
C        8.91355000       8.03756000      12.49746000
C       12.47855000       9.27256000      12.49746000
C        8.91355000       5.56756000      12.49746000
O        9.60001154       4.20586589      14.92330298
H       10.42662734       4.75056933      14.97910304
H        9.71018443       3.46370056      15.52260335
O       11.73939174       0.73364224      15.07676553
H       11.84959972       1.47592781      14.47762052
H       12.56609677       0.18904909      15.02110208
C       14.61755000       0.60744000      17.50254000
C       15.33055000       1.84244000      17.50254000
C       14.61755000       3.07744000      17.50254000
C       15.33055000       4.31244000      17.50254000
C       16.75445000       1.84244000      17.50254000
C       13.18945000       3.07744000      17.50254000
C       16.75445000       4.31244000      17.50254000
C       13.18945000       0.60744000      17.50254000
C       14.61545000       0.62756000      12.49746000
C       15.32845000       1.86256000      12.49746000
C       14.61545000       3.09756000      12.49746000
C       15.32845000       4.33256000      12.49746000
C       16.75655000       1.86256000      12.49746000
C       13.19155000       3.09756000      12.49746000
C       16.75655000       4.33256000      12.49746000
C       13.19155000       0.62756000      12.49746000
O       11.73942379       5.67413472      15.07662447
H       11.85044142       6.41654494      14.47776337
H       12.56574883       5.12899862      15.02096864
O       16.01677090       5.67423137      15.07677881
H       16.84351185       5.12971499      15.02078172
H       16.12640179       6.41613744      14.47705486
C       14.61755000      15.42744000      17.50254000
C       15.33055000      16.66244000      17.50254000
C       14.61755000      17.89744000      17.50254000
C       15.33055000      19.13244000      17.50254000
C       16.75445000      16.66244000      17.50254000
C       13.18945000      17.89744000      17.50254000
C       16.75445000      19.13244000      17.50254000
C       13.18945000      15.42744000      17.50254000
C       14.61545000      15.44756000      12.49746000
C       15.32845000      16.68256000      12.49746000
C       14.61545000      17.91756000      12.49746000
C       15.32845000      19.15256000      12.49746000
C       16.75655000      16.68256000      12.49746000
C       13.19155000      17.91756000      12.49746000
C       16.75655000      19.15256000      12.49746000
C       13.19155000      15.44756000      12.49746000
O        9.59979682      19.02575081      14.92329330
H        9.70969322      18.28318909      15.52216803
H       10.42663279      19.57011939      14.97932186
O       16.01739643      10.61524712      15.07662369
H       16.12841287      11.35835676      14.47865400
H       16.84374230      10.07012232      15.02056906
C       10.33955000      10.48744000      17.50254000
C       11.05255000      11.72244000      17.50254000
C       10.33955000      12.95744000      17.50254000
C       11.05255000      14.19244000      17.50254000
C       12.47645000      11.72244000      17.50254000
C        8.91145000      12.95744000      17.50254000
C       12.47645000      14.19244000      17.50254000
C        8.91145000      10.48744000      17.50254000
C       10.33745000      10.50756000      12.49746000
C       11.05045000      11.74256000      12.49746000
C       10.33745000      12.97756000      12.49746000
C       11.05045000      14.21256000      12.49746000
C       12.47855000      11.74256000      12.49746000
C        8.91355000      12.97756000      12.49746000
C       12.47855000      14.21256000      12.49746000
C        8.91355000      10.50756000      12.49746000
O       13.87908669      19.02577864      14.92337159
H       13.99061858      18.28364774      15.52247536
H       14.70521502      19.57132071      14.97867887
O       13.87819010      14.08480354      14.92329982
H       13.98872138      13.34204354      15.52178821
H       14.70466549      14.62972000      14.97939300
C       10.33955000      15.42744000      17.50254000
C       11.05255000      16.66244000      17.50254000
C       10.33955000      17.89744000      17.50254000
C       11.05255000      19.13244000      17.50254000
C       12.47645000      16.66244000      17.50254000
C        8.91145000      17.89744000      17.50254000
C       12.47645000      19.13244000      17.50254000
C        8.91145000      15.42744000      17.50254000
C       10.33745000      15.44756000      12.49746000
C       11.05045000      16.68256000      12.49746000
C       10.33745000      17.91756000      12.49746000
C       11.05045000      19.15256000      12.49746000
C       12.47855000      16.68256000      12.49746000
C        8.91355000      17.91756000      12.49746000
C       12.47855000      19.15256000      12.49746000
C        8.91355000      15.44756000      12.49746000
O        9.60001154      14.08586589      14.92330298
H       10.42662734      14.63056933      14.97910304
H        9.71018443      13.34370056      15.52260335
O       11.73939174      10.61364224      15.07676553
H       11.84959972      11.35592781      14.47762052
H       12.56609677      10.06904909      15.02110208
C       14.61755000      10.48744000      17.50254000
C       15.33055000      11.72244000      17.50254000
C       14.61755000      12.95744000      17.50254000
C       15.33055000      14.19244000      17.50254000
C       16.75445000      11.72244000      17.50254000
C       13.18945000      12.95744000      17.50254000
C       16.75445000      14.19244000      17.50254000
C       13.18945000      10.48744000      17.50254000
C       14.61545000      10.50756000      12.49746000
C       15.32845000      11.74256000      12.49746000
C       14.61545000      12.97756000      12.49746000
C       15.32845000      14.21256000      12.49746000
C       16.75655000      11.74256000      12.49746000
C       13.19155000      12.97756000      12.49746000
C       16.75655000      14.21256000      12.49746000
C       13.19155000      10.50756000      12.49746000
O       11.73942379      15.55413472      15.07662447
H       11.85044142      16.29654494      14.47776337
H       12.56574883      15.00899862      15.02096864
O       16.01677090      15.55423137      15.07677881
H       16.84351185      15.00971499      15.02078172
H       16.12640179      16.29613744      14.47705486
C       14.61755000      25.30744000      17.50254000
C       15.33055000      26.54244000      17.50254000
C       14.61755000      27.77744000      17.50254000
C       15.33055000      29.01244000      17.50254000
C       16.75445000      26.54244000      17.50254000
C       13.18945000      27.77744000      17.50254000
C       16.75445000      29.01244000      17.50254000
C       13.18945000      25.30744000      17.50254000
C       14.61545000      25.32756000      12.49746000
C       15.32845000      26.56256000      12.49746000
C       14.61545000      27.79756000      12.49746000
C       15.32845000      29.03256000      12.49746000
C       16.75655000      26.56256000      12.49746000
C       13.19155000      27.79756000      12.49746000
C       16.75655000      29.03256000      12.49746000
C       13.19155000      25.32756000      12.49746000
O        9.59979682      28.90575081      14.92329330
H        9.70969322      28.16318909      15.52216803
H       10.42663279      29.45011939      14.97932186
O       16.01739643      20.49524712      15.07662369
H       16.12841287      21.23835676      14.47865400
H       16.84374230      19.95012232      15.02056906
C       10.33955000      20.36744000      17.50254000
C       11.05255000      21.60244000      17.50254000