1408
Lattice="34.2239999837844 0.0 0.0 0.0 39.520000003664336 0.0 0.0 0.0 30.00000001317236" Properties=species:S:1:pos:R:3 ipi_comment="Step:      478000  Bead:       0 positions{ase}  cell{ase}" pbc="T T T"
C        6.06155000       5.54744000      17.50254000
C        6.77454999       6.78244002      17.50254000
C        6.06155000       8.01743998      17.50254000
C        6.77454999       9.25244000      17.50254000
C        8.19845002       6.78244002      17.50254000
C        4.63345000       8.01743998      17.50254000
C        8.19845002       9.25244000      17.50254000
C        4.63345000       5.54744000      17.50254000
C        6.05945001       5.56756001      12.49746002
C        6.77245000       6.80256002      12.49746002
C        6.05945001       8.03755999      12.49746002
C        6.77245000       9.27256001      12.49746002
C        8.20055001       6.80256002      12.49746002
C        4.63555000       8.03755999      12.49746002
C        8.20055001       9.27256001      12.49746002
C        4.63555000       5.56756001      12.49746002
O        9.81396351       6.72299238      15.09873422
H       10.40520377       6.13377887      14.63959645
H        9.98865263       7.59705306      14.77517545
O        7.59749537      27.71935926      15.17980052
H        7.30572169      26.89036815      14.97320456
H        8.61426746      27.75313527      15.10871680
C        1.78355000       0.60744000      17.50254000
C        2.49655000       1.84244000      17.50254000
C        1.78355000       3.07744000      17.50254000
C        2.49655000       4.31244000      17.50254000
C        3.92045000       1.84244000      17.50254000
C        0.35545000       3.07744000      17.50254000
C        3.92045000       4.31244000      17.50254000
C        0.35545000       0.60744000      17.50254000
C        1.78145000       0.62756000      12.49746002
C        2.49445000       1.86256000      12.49746002
C        1.78145000       3.09756000      12.49746002
C        2.49445000       4.33256000      12.49746002
C        3.92255000       1.86256000      12.49746002
C        0.35755000       3.09756000      12.49746002
C        3.92255000       4.33256000      12.49746002
C        0.35755000       0.62756000      12.49746002
O       28.44623851       8.75242825      15.19498087
H       29.31411061       9.02732920      15.12107023
H       28.41206823       8.04719175      14.50772906
O        7.10445803       5.76745136      14.86829340
H        6.27318162       6.23522307      15.13209351
H        7.90004751       6.36506504      14.99442866
C        1.78355000       5.54744000      17.50254000
C        2.49655000       6.78244002      17.50254000
C        1.78355000       8.01743998      17.50254000
C        2.49655000       9.25244000      17.50254000
C        3.92045000       6.78244002      17.50254000
C        0.35545000       8.01743998      17.50254000
C        3.92045000       9.25244000      17.50254000
C        0.35545000       5.54744000      17.50254000
C        1.78145000       5.56756001      12.49746002
C        2.49445000       6.80256002      12.49746002
C        1.78145000       8.03755999      12.49746002
C        2.49445000       9.27256001      12.49746002
C        3.92255000       6.80256002      12.49746002
C        0.35755000       8.03755999      12.49746002
C        3.92255000       9.27256001      12.49746002
C        0.35755000       5.56756001      12.49746002
O        5.63503190      12.12211123      15.07295442
H        4.97376030      11.38645996      15.26724284
H        6.43747757      11.64560243      14.78709981
O        7.65139478      30.53282689      15.04904325
H        8.21875673      30.62159862      14.24753661
H        7.38521505      29.56141391      14.89816126
C        6.06155000       0.60744000      17.50254000
C        6.77454999       1.84244000      17.50254000
C        6.06155000       3.07744000      17.50254000
C        6.77454999       4.31244000      17.50254000
C        8.19845002       1.84244000      17.50254000
C        4.63345000       3.07744000      17.50254000
C        8.19845002       4.31244000      17.50254000
C        4.63345000       0.60744000      17.50254000
C        6.05945001       0.62756000      12.49746002
C        6.77245000       1.86256000      12.49746002
C        6.05945001       3.09756000      12.49746002
C        6.77245000       4.33256000      12.49746002
C        8.20055001       1.86256000      12.49746002
C        4.63555000       3.09756000      12.49746002
C        8.20055001       4.33256000      12.49746002
C        4.63555000       0.62756000      12.49746002
O        0.57752017       9.17134185      15.14102572
H        0.76126746       9.91617073      14.55666199
H        0.83411370       8.32258906      14.63267809
O       18.30016913      14.22392757      14.70243784
H       19.24392305      14.43756563      14.59921405
H       18.09902749      15.04299845      15.25798001
C        6.06155000      15.42743999      17.50254000
C        6.77454999      16.66244001      17.50254000
C        6.06155000      17.89744002      17.50254000
C        6.77454999      19.13243999      17.50254000
C        8.19845002      16.66244001      17.50254000
C        4.63345000      17.89744002      17.50254000
C        8.19845002      19.13243999      17.50254000
C        4.63345000      15.42743999      17.50254000
C        6.05945001      15.44755999      12.49746002
C        6.77245000      16.68256001      12.49746002
C        6.05945001      17.91755998      12.49746002
C        6.77245000      19.15256000      12.49746002
C        8.20055001      16.68256001      12.49746002
C        4.63555000      17.91755998      12.49746002
C        8.20055001      19.15256000      12.49746002
C        4.63555000      15.44755999      12.49746002
O       32.88506625      21.05701936      15.02416354
H       33.19215502      21.91813252      15.35323799
H       32.26708271      21.28710166      14.25214441
O        3.17563028      13.15704834      14.97491194
H        2.40439556      12.69111232      15.34316195
H        3.58673704      12.39116941      14.57815929
C        1.78355000      10.48744002      17.50254000
C        2.49655000      11.72243999      17.50254000
C        1.78355000      12.95744000      17.50254000
C        2.49655000      14.19244002      17.50254000
C        3.92045000      11.72243999      17.50254000
C        0.35545000      12.95744000      17.50254000
C        3.92045000      14.19244002      17.50254000
C        0.35545000      10.48744002      17.50254000
C        1.78145000      10.50756003      12.49746002
C        2.49445000      11.74255999      12.49746002
C        1.78145000      12.97756001      12.49746002
C        2.49445000      14.21255998      12.49746002
C        3.92255000      11.74255999      12.49746002
C        0.35755000      12.97756001      12.49746002
C        3.92255000      14.21255998      12.49746002
C        0.35755000      10.50756003      12.49746002
O       10.10877320      28.69362618      15.00436236
H       10.37326407      29.64055331      15.22112168
H       10.91161909      28.15459786      14.97204421
O        9.33376913      11.03551237      14.85855152
H        9.33030765      11.98726680      15.20509301
H        9.32565431      10.45271203      15.62408847
C        1.78355000      15.42743999      17.50254000
C        2.49655000      16.66244001      17.50254000
C        1.78355000      17.89744002      17.50254000
C        2.49655000      19.13243999      17.50254000
C        3.92045000      16.66244001      17.50254000
C        0.35545000      17.89744002      17.50254000
C        3.92045000      19.13243999      17.50254000
C        0.35545000      15.42743999      17.50254000
C        1.78145000      15.44755999      12.49746002
C        2.49445000      16.68256001      12.49746002
C        1.78145000      17.91755998      12.49746002
C        2.49445000      19.15256000      12.49746002
C        3.92255000      16.68256001      12.49746002
C        0.35755000      17.91755998      12.49746002
C        3.92255000      19.15256000      12.49746002
C        0.35755000      15.44755999      12.49746002
O       31.35704965       9.39288936      15.05942411
H       32.29628986       9.23709608      15.29901314
H       31.31239925      10.31823954      14.75776118
O       30.68914304      16.60893606      14.88816983
H       31.28726918      17.41345493      14.91469152
H       30.10413733      16.47496421      15.59900194
C        6.06155000      10.48744002      17.50254000
C        6.77454999      11.72243999      17.50254000
C        6.06155000      12.95744000      17.50254000
C        6.77454999      14.19244002      17.50254000
C        8.19845002      11.72243999      17.50254000
C        4.63345000      12.95744000      17.50254000
C        8.19845002      14.19244002      17.50254000
C        4.63345000      10.48744002      17.50254000
C        6.05945001      10.50756003      12.49746002
C        6.77245000      11.74255999      12.49746002
C        6.05945001      12.97756001      12.49746002
C        6.77245000      14.21255998      12.49746002
C        8.20055001      11.74255999      12.49746002
C        4.63555000      12.97756001      12.49746002
C        8.20055001      14.21255998      12.49746002
C        4.63555000      10.50756003      12.49746002
O       33.25336954      37.11670921      14.95391921
H       33.50433669      37.96496239      15.24590748
H       32.30578533      36.88961556      15.23678316
O       19.10320367      21.67614525      14.89535588
H       18.15150906      21.63579609      15.04895805
H       19.42412485      20.98591374      15.52744633
C        6.06155000      25.30743998      17.50254000
C        6.77454999      26.54243999      17.50254000
C        6.06155000      27.77744001      17.50254000
C        6.77454999      29.01243998      17.50254000
C        8.19845002      26.54243999      17.50254000
C        4.63345000      27.77744001      17.50254000
C        8.19845002      29.01243998      17.50254000
C        4.63345000      25.30743998      17.50254000
C        6.05945001      25.32755998      12.49746002
C        6.77245000      26.56256000      12.49746002
C        6.05945001      27.79756002      12.49746002
C        6.77245000      29.03255998      12.49746002
C        8.20055001      26.56256000      12.49746002
C        4.63555000      27.79756002      12.49746002
C        8.20055001      29.03255998      12.49746002
C        4.63555000      25.32755998      12.49746002
O        9.76208578      33.89187583      15.08372657
H       10.34062762      34.68502224      15.04862413
H        9.00185203      34.10599545      14.52153192
O        9.54296278      16.80131242      15.08877502
H        9.43408860      17.47797249      14.40095016
H       10.50596018      16.98804825      15.31758346
C        1.78355000      20.36744001      17.50254000
C        2.49655000      21.60243997      17.50254000
C        1.78355000      22.83743999      17.50254000
C        2.49655000      24.07244001      17.50254000
C        3.92045000      21.60243997      17.50254000
C        0.35545000      22.83743999      17.50254000
C        3.92045000      24.07244001      17.50254000
C        0.35545000      20.36744001      17.50254000
C        1.78145000      20.38756001      12.49746002
C        2.49445000      21.62255998      12.49746002
C        1.78145000      22.85756000      12.49746002
C        2.49445000      24.09256002      12.49746002
C        3.92255000      21.62255998      12.49746002
C        0.35755000      22.85756000      12.49746002
C        3.92255000      24.09256002      12.49746002
C        0.35755000      20.38756001      12.49746002
O       30.11045730      31.54480869      14.84450747
H       30.56824461      30.69173253      15.15131629
H       30.57849240      32.27952419      15.21176366
O        2.10590062      20.93684242      15.13407045
H        2.06946828      19.98994232      14.96386150
H        1.41433312      21.32180827      14.60554607
C        1.78355000      25.30743998      17.50254000
C        2.49655000      26.54243999      17.50254000
C        1.78355000      27.77744001      17.50254000
C        2.49655000      29.01243998      17.50254000
C        3.92045000      26.54243999      17.50254000
C        0.35545000      27.77744001      17.50254000
C        3.92045000      29.01243998      17.50254000
C        0.35545000      25.30743998      17.50254000
C        1.78145000      25.32755998      12.49746002
C        2.49445000      26.56256000      12.49746002
C        1.78145000      27.79756002      12.49746002
C        2.49445000      29.03255998      12.49746002
C        3.92255000      26.56256000      12.49746002
C        0.35755000      27.79756002      12.49746002
C        3.92255000      29.03255998      12.49746002
C        0.35755000      25.32755998      12.49746002
O        0.83779202      28.99612123      15.00448929
H        1.59615598      29.66396758      14.88833711
H        0.05684558      29.49159427      14.98384780
O        0.86992046      16.33030813      15.07902376
H        1.59201380      15.74351126      15.36624429
H        1.13093584      16.22204934      14.09633524
C        6.06155000      20.36744001      17.50254000
C        6.77454999      21.60243997      17.50254000
C        6.06155000      22.83743999      17.50254000
C        6.77454999      24.07244001      17.50254000
C        8.19845002      21.60243997      17.50254000
C        4.63345000      22.83743999      17.50254000
C        8.19845002      24.07244001      17.50254000
C        4.63345000      20.36744001      17.50254000
C        6.05945001      20.38756001      12.49746002
C        6.77245000      21.62255998      12.49746002
C        6.05945001      22.85756000      12.49746002
C        6.77245000      24.09256002      12.49746002
C        8.20055001      21.62255998      12.49746002
C        4.63555000      22.85756000      12.49746002
C        8.20055001      24.09256002      12.49746002
C        4.63555000      20.38756001      12.49746002
O       22.11825343      18.51312974      14.85840164
H       22.08135609      19.09653110      14.12928848
H       23.05352026      18.59234770      15.13497092
O       24.10536233      23.87754309      15.13955033
H       24.97706479      23.88292766      14.69711424
H       23.76886948      22.97648989      15.17199964
C        6.06155000      35.18744002      17.50254000
C        6.77454999      36.42243998      17.50254000
C        6.06155000      37.65744000      17.50254000
C        6.77454999      38.89244002      17.50254000
C        8.19845002      36.42243998      17.50254000
C        4.63345000      37.65744000      17.50254000
C        8.19845002      38.89244002      17.50254000
C        4.63345000      35.18744002      17.50254000
C        6.05945001      35.20756002      12.49746002
C        6.77245000      36.44255999      12.49746002
C        6.05945001      37.67756001      12.49746002
C        6.77245000      38.91256002      12.49746002
C        8.20055001      36.44255999      12.49746002
C        4.63555000      37.67756001      12.49746002
C        8.20055001      38.91256002      12.49746002
C        4.63555000      35.20756002      12.49746002
O        1.44011240       4.78119818      14.86225008
H        1.47572538       3.80564783      14.82636822
H        0.48980594       4.87366647      14.62849322
O        4.68863324      28.72660097      14.92529614
H        5.66761360      28.58372048      14.81827680
H        4.30168591      28.04933105      15.43040196
C        1.78355000      30.24744000      17.50254000
C        2.49655000      31.48244001      17.50254000
C        1.78355000      32.71743998      17.50254000
C        2.49655000      33.95244000      17.50254000
C        3.92045000      31.48244001      17.50254000
C        0.35545000      32.71743998      17.50254000
C        3.92045000      33.95244000      17.50254000
C        0.35545000      30.24744000      17.50254000
C        1.78145000      30.26756000      12.49746002
C        2.49445000      31.50256002      12.49746002
C        1.78145000      32.73755999      12.49746002
C        2.49445000      33.97256000      12.49746002
C        3.92255000      31.50256002      12.49746002
C        0.35755000      32.73755999      12.49746002
C        3.92255000      33.97256000      12.49746002
C        0.35755000      30.26756000      12.49746002
O        5.09720474      31.89035074      15.02240818
H        4.94958915      30.98048790      15.25906684
H        6.00793423      32.06945450      15.27027472
O       13.64705922      28.90362691      15.12332200
H       13.58293102      29.47934475      15.96563920
H       13.25048050      29.39678793      14.36722670
C        1.78355000      35.18744002      17.50254000
C        2.49655000      36.42243998      17.50254000
C        1.78355000      37.65744000      17.50254000
C        2.49655000      38.89244002      17.50254000
C        3.92045000      36.42243998      17.50254000
C        0.35545000      37.65744000      17.50254000
C        3.92045000      38.89244002      17.50254000
C        0.35545000      35.18744002      17.50254000
C        1.78145000      35.20756002      12.49746002
C        2.49445000      36.44255999      12.49746002
C        1.78145000      37.67756001      12.49746002
C        2.49445000      38.91256002      12.49746002
C        3.92255000      36.44255999      12.49746002
C        0.35755000      37.67756001      12.49746002
C        3.92255000      38.91256002      12.49746002
C        0.35755000      35.20756002      12.49746002
O        1.36576372      38.59208332      14.94454234
H        2.24575525      38.75607546      15.18011908
H        1.16152751      37.83817694      15.51703694
O       30.55586343      36.54149374      15.18001389
H       30.17791548      35.80302075      14.67123985
H       29.99061159      37.23084083      14.87439380
C        6.06155000      30.24744000      17.50254000
C        6.77454999      31.48244001      17.50254000
C        6.06155000      32.71743998      17.50254000
C        6.77454999      33.95244000      17.50254000
C        8.19845002      31.48244001      17.50254000
C        4.63345000      32.71743998      17.50254000
C        8.19845002      33.95244000      17.50254000
C        4.63345000      30.24744000      17.50254000
C        6.05945001      30.26756000      12.49746002
C        6.77245000      31.50256002      12.49746002
C        6.05945001      32.73755999      12.49746002
C        6.77245000      33.97256000      12.49746002
C        8.20055001      31.50256002      12.49746002
C        4.63555000      32.73755999      12.49746002
C        8.20055001      33.97256000      12.49746002
C        4.63555000      30.26756000      12.49746002
O        3.15664733      25.56302596      14.94689583
H        3.61248261      24.86318242      14.54589652
H        3.46982561      26.39599915      14.65802161
O       18.24687246      18.75519215      14.89591636
H       17.56803574      19.43700297      14.74236776
H       17.92598230      18.13610270      14.24723560
C       14.61754998       5.54744000      17.50254000
C       15.33055002       6.78244002      17.50254000
C       14.61754998       8.01743998      17.50254000
C       15.33055002       9.25244000      17.50254000
C       16.75445001       6.78244002      17.50254000
C       13.18945003       8.01743998      17.50254000
C       16.75445001       9.25244000      17.50254000
C       13.18945003       5.54744000      17.50254000
C       14.61545000       5.56756001      12.49746002
C       15.32844998       6.80256002      12.49746002
C       14.61545000       8.03755999      12.49746002
C       15.32844998       9.27256001      12.49746002
C       16.75654999       6.80256002      12.49746002
C       13.19155001       8.03755999      12.49746002
C       16.75654999       9.27256001      12.49746002
C       13.19155001       5.56756001      12.49746002
O        7.65683781       0.50110001      15.12649418
H        6.79692658       0.49367373      14.73023093
H        7.82603292       1.45017102      15.07655172
O        9.96981785      14.04522180      15.07980563
H        9.54201351      14.74623234      15.60345696
H       10.59447719      14.61275341      14.53621318
C       10.33955002       0.60744000      17.50254000
C       11.05255000       1.84244000      17.50254000
C       10.33955002       3.07744000      17.50254000
C       11.05255000       4.31244000      17.50254000
C       12.47644999       1.84244000      17.50254000
C        8.91145001       3.07744000      17.50254000
C       12.47644999       4.31244000      17.50254000
C        8.91145001       0.60744000      17.50254000
C       10.33744998       0.62756000      12.49746002
C       11.05045002       1.86256000      12.49746002
C       10.33744998       3.09756000      12.49746002
C       11.05045002       4.33256000      12.49746002
C       12.47854997       1.86256000      12.49746002
C        8.91355000       3.09756000      12.49746002
C       12.47854997       4.33256000      12.49746002
C        8.91355000       0.62756000      12.49746002
O       11.19706755      36.43643333      14.93502376
H       12.09941514      36.23696064      15.19345626
H       10.85127385      37.21408953      15.23537714
O       19.21069636       1.87054035      15.16156450
H       18.56225942       1.12929077      15.41338528
H       19.38523853       1.64276959      14.27558615
C       10.33955002       5.54744000      17.50254000
C       11.05255000       6.78244002      17.50254000
C       10.33955002       8.01743998      17.50254000
C       11.05255000       9.25244000      17.50254000
C       12.47644999       6.78244002      17.50254000
C        8.91145001       8.01743998      17.50254000
C       12.47644999       9.25244000      17.50254000
C        8.91145001       5.54744000      17.50254000
C       10.33744998       5.56756001      12.49746002
C       11.05045002       6.80256002      12.49746002
C       10.33744998       8.03755999      12.49746002
C       11.05045002       9.27256001      12.49746002
C       12.47854997       6.80256002      12.49746002
C        8.91355000       8.03755999      12.49746002
C       12.47854997       9.27256001      12.49746002
C        8.91355000       5.56756001      12.49746002
O       24.08943115      12.33926640      14.97065380
H       23.69267099      12.51079832      14.07801662
H       24.95144007      11.74989931      14.88156115
O        7.38748545      37.73189432      14.96407646
H        8.22480756      38.25803453      15.01204982
H        7.68201246      36.86793725      14.71587502
C       14.61754998       0.60744000      17.50254000
C       15.33055002       1.84244000      17.50254000
C       14.61754998       3.07744000      17.50254000
C       15.33055002       4.31244000      17.50254000
C       16.75445001       1.84244000      17.50254000
C       13.18945003       3.07744000      17.50254000
C       16.75445001       4.31244000      17.50254000
C       13.18945003       0.60744000      17.50254000
C       14.61545000       0.62756000      12.49746002
C       15.32844998       1.86256000      12.49746002
C       14.61545000       3.09756000      12.49746002
C       15.32844998       4.33256000      12.49746002
C       16.75654999       1.86256000      12.49746002
C       13.19155001       3.09756000      12.49746002
C       16.75654999       4.33256000      12.49746002
C       13.19155001       0.62756000      12.49746002
O       24.37786982       8.07450467      14.85010228
H       25.01726595       7.46151685      15.16298135
H       24.01719068       8.73451615      15.41973972
O       18.15129573       8.15220221      14.91892641
H       18.17098989       9.12530087      14.71300365
H       17.61649007       8.20073938      15.74901900
C       14.61754998      15.42743999      17.50254000
C       15.33055002      16.66244001      17.50254000
C       14.61754998      17.89744002      17.50254000
C       15.33055002      19.13243999      17.50254000
C       16.75445001      16.66244001      17.50254000
C       13.18945003      17.89744002      17.50254000
C       16.75445001      19.13243999      17.50254000
C       13.18945003      15.42743999      17.50254000
C       14.61545000      15.44755999      12.49746002
C       15.32844998      16.68256001      12.49746002
C       14.61545000      17.91755998      12.49746002
C       15.32844998      19.15256000      12.49746002
C       16.75654999      16.68256001      12.49746002
C       13.19155001      17.91755998      12.49746002
C       16.75654999      19.15256000      12.49746002
C       13.19155001      15.44755999      12.49746002
O       23.38058955      21.36759494      15.04841698
H       23.50889714      20.43265487      15.33622806
H       22.41023233      21.42853354      14.85278438
O       10.54820638      39.23352879      14.96062341
H       10.19779014       0.50956170      14.61313367
H       11.41764606       0.10497215      15.25584086
C       10.33955002      10.48744002      17.50254000
C       11.05255000      11.72243999      17.50254000
C       10.33955002      12.95744000      17.50254000
C       11.05255000      14.19244002      17.50254000
C       12.47644999      11.72243999      17.50254000
C        8.91145001      12.95744000      17.50254000
C       12.47644999      14.19244002      17.50254000
C        8.91145001      10.48744002      17.50254000
C       10.33744998      10.50756003      12.49746002
C       11.05045002      11.74255999      12.49746002
C       10.33744998      12.97756001      12.49746002
C       11.05045002      14.21255998      12.49746002
C       12.47854997      11.74255999      12.49746002
C        8.91355000      12.97756001      12.49746002
C       12.47854997      14.21255998      12.49746002
C        8.91355000      10.50756003      12.49746002
O       12.40865265      10.35079441      15.03118347
H       12.55599951      11.26504267      15.35149738
H       11.55476502      10.60236982      14.66953968
O       15.79291113      17.44185106      14.99520499
H       15.53827505      18.25481077      14.58277681
H       16.34668330      17.67378395      15.69404079
C       10.33955002      15.42743999      17.50254000
C       11.05255000      16.66244001      17.50254000
C       10.33955002      17.89744002      17.50254000
C       11.05255000      19.13243999      17.50254000
C       12.47644999      16.66244001      17.50254000
C        8.91145001      17.89744002      17.50254000
C       12.47644999      19.13243999      17.50254000
C        8.91145001      15.42743999      17.50254000
C       10.33744998      15.44755999      12.49746002
C       11.05045002      16.68256001      12.49746002
C       10.33744998      17.91755998      12.49746002
C       11.05045002      19.15256000      12.49746002
C       12.47854997      16.68256001      12.49746002
C        8.91355000      17.91755998      12.49746002
C       12.47854997      19.15256000      12.49746002
C        8.91355000      15.44755999      12.49746002
O        3.60369804       8.55355211      15.06360222
H        2.78727218       8.90795314      15.34646172
H        3.43697110       7.63962906      15.04450709
O       20.05963131      10.31727539      14.95279901
H       20.28420396       9.73301705      15.70696607
H       20.57660640      11.10096876      14.85137879
C       14.61754998      10.48744002      17.50254000
C       15.33055002      11.72243999      17.50254000
C       14.61754998      12.95744000      17.50254000
C       15.33055002      14.19244002      17.50254000
C       16.75445001      11.72243999      17.50254000
C       13.18945003      12.95744000      17.50254000
C       16.75445001      14.19244002      17.50254000
C       13.18945003      10.48744002      17.50254000
C       14.61545000      10.50756003      12.49746002
C       15.32844998      11.74255999      12.49746002
C       14.61545000      12.97756001      12.49746002
C       15.32844998      14.21255998      12.49746002
C       16.75654999      11.74255999      12.49746002
C       13.19155001      12.97756001      12.49746002
C       16.75654999      14.21255998      12.49746002
C       13.19155001      10.50756003      12.49746002
O       26.47408702      10.92552108      15.07004093
H       27.25698761      11.47273095      15.08511725
H       26.64315076       9.99982495      15.16678215
O       24.40182842      15.45250135      15.00452791
H       23.63513746      16.02912680      14.92180606
H       23.97975513      14.56662192      14.99277923
C       14.61754998      25.30743998      17.50254000
C       15.33055002      26.54243999      17.50254000
C       14.61754998      27.77744001      17.50254000
C       15.33055002      29.01243998      17.50254000
C       16.75445001      26.54243999      17.50254000
C       13.18945003      27.77744001      17.50254000
C       16.75445001      29.01243998      17.50254000
C       13.18945003      25.30743998      17.50254000
C       14.61545000      25.32755998      12.49746002
C       15.32844998      26.56256000      12.49746002
C       14.61545000      27.79756002      12.49746002
C       15.32844998      29.03255998      12.49746002
C       16.75654999      26.56256000      12.49746002
C       13.19155001      27.79756002      12.49746002
C       16.75654999      29.03255998      12.49746002
C       13.19155001      25.32755998      12.49746002
O        8.51747369      24.86925897      14.92202673
H        8.39846050      24.14177991      14.32997761
H        8.05439501      24.44247359      15.60396080
O       16.13248490      12.00597086      14.97052660
H       17.05848298      12.19151570      15.07565457
H       15.95690281      11.24945857      15.60335057
C       10.33955002      20.36744001      17.50254000