1600
Lattice="34.2239999837844 0.0 0.0 0.0 39.520000003664336 0.0 0.0 0.0 30.00000001317236" Properties=species:S:1:pos:R:3 ipi_comment="Step:      422000  Bead:       0 positions{ase}  cell{ase}" pbc="T T T"
C        1.78355000      15.42743999      17.50254000
C        2.49655000      16.66244001      17.50254000
C        1.78355000      17.89744002      17.50254000
C        2.49655000      19.13243999      17.50254000
C        3.92045000      16.66244001      17.50254000
C        0.35545000      17.89744002      17.50254000
C        3.92045000      19.13243999      17.50254000
C        0.35545000      15.42743999      17.50254000
C        1.78145000      15.44755999      12.49746002
C        2.49445000      16.68256001      12.49746002
C        1.78145000      17.91755998      12.49746002
C        2.49445000      19.15256000      12.49746002
C        3.92255000      16.68256001      12.49746002
C        0.35755000      17.91755998      12.49746002
C        3.92255000      19.15256000      12.49746002
C        0.35755000      15.44755999      12.49746002
O        5.23680482       6.25013207      14.99724479
H        4.94170253       5.39727088      15.25086205
H        4.51666345       6.52445056      14.44693100
O        3.27711256       0.94636557      14.92290358
H        2.52565625       1.57480232      15.04505593
H        3.59753969       0.54049051      15.77395296
O        5.84009096      23.99934134      14.85335883
H        6.22062692      23.12942374      14.98441551
H        4.91518745      24.26653034      15.05542787
C        1.78355000      10.48744002      17.50254000
C        2.49655000      11.72243999      17.50254000
C        1.78355000      12.95744000      17.50254000
C        2.49655000      14.19244002      17.50254000
C        3.92045000      11.72243999      17.50254000
C        0.35545000      12.95744000      17.50254000
C        3.92045000      14.19244002      17.50254000
C        0.35545000      10.48744002      17.50254000
C        1.78145000      10.50755997      12.49746002
C        2.49445000      11.74255999      12.49746002
C        1.78145000      12.97756001      12.49746002
C        2.49445000      14.21255998      12.49746002
C        3.92255000      11.74255999      12.49746002
C        0.35755000      12.97756001      12.49746002
C        3.92255000      14.21255998      12.49746002
C        0.35755000      10.50755997      12.49746002
O        5.32286016      17.39136716      14.87000614
H        6.21006076      17.88228144      14.83918805
H        5.08723516      17.59133618      15.83953657
O       33.40013022      10.30812790      15.01135608
H       33.42940638      11.29412403      15.09538614
H       32.57411544       9.92660679      15.24242490
O        4.41863343      12.00909463      14.98056392
H        4.55268003      11.02542369      14.84769860
H        3.43836558      12.21343528      15.07469879
C        1.78355000       5.54744000      17.50254000
C        2.49655000       6.78244002      17.50254000
C        1.78355000       8.01743998      17.50254000
C        2.49655000       9.25244000      17.50254000
C        3.92045000       6.78244002      17.50254000
C        0.35545000       8.01743998      17.50254000
C        3.92045000       9.25244000      17.50254000
C        0.35545000       5.54744000      17.50254000
C        1.78145000       5.56756001      12.49746002
C        2.49445000       6.80255997      12.49746002
C        1.78145000       8.03755999      12.49746002
C        2.49445000       9.27256001      12.49746002
C        3.92255000       6.80255997      12.49746002
C        0.35755000       8.03755999      12.49746002
C        3.92255000       9.27256001      12.49746002
C        0.35755000       5.56756001      12.49746002
O        5.79889687       2.25544168      14.95582349
H        5.15059330       2.11089998      15.62969785
H        5.34415761       2.00075045      14.12201286
O       33.17572591       0.89291533      15.12133000
H       34.05098670       0.50881314      15.12745537
H       33.04356049       1.69258975      14.63322380
O        1.41832731       9.19251825      14.94536655
H        0.56719986       9.63933208      15.13844055
H        2.04604206       9.95014934      15.09278591
C        1.78355000       0.60744001      17.50254000
C        2.49655000       1.84244001      17.50254000
C        1.78355000       3.07744001      17.50254000
C        2.49655000       4.31244001      17.50254000
C        3.92045000       1.84244001      17.50254000
C        0.35545000       3.07744001      17.50254000
C        3.92045000       4.31244001      17.50254000
C        0.35545000       0.60744001      17.50254000
C        1.78145000       0.62755999      12.49746002
C        2.49445000       1.86255999      12.49746002
C        1.78145000       3.09755999      12.49746002
C        2.49445000       4.33255999      12.49746002
C        3.92255000       1.86255999      12.49746002
C        0.35755000       3.09755999      12.49746002
C        3.92255000       4.33255999      12.49746002
C        0.35755000       0.62755999      12.49746002
O        7.49491168      15.81836053      15.08022498
H        6.67040162      16.05542262      14.69883627
H        7.24088032      14.87555846      15.14448079
O        0.88983537       5.08803538      15.12879904
H        1.03034629       5.69421745      14.39480608
H        0.07500134       4.57146656      14.84590757
O        3.46554493       3.99007104      15.00539032
H        3.45858079       3.04637863      14.97694446
H        2.72384327       4.28045023      15.59631893
C        1.78355000      35.18744002      17.50254000
C        2.49655000      36.42244003      17.50254000
C        1.78355000      37.65744000      17.50254000
C        2.49655000      38.89244002      17.50254000
C        3.92045000      36.42244003      17.50254000
C        0.35545000      37.65744000      17.50254000
C        3.92045000      38.89244002      17.50254000
C        0.35545000      35.18744002      17.50254000
C        1.78145000      35.20755997      12.49746002
C        2.49445000      36.44255999      12.49746002
C        1.78145000      37.67756001      12.49746002
C        2.49445000      38.91255997      12.49746002
C        3.92255000      36.44255999      12.49746002
C        0.35755000      37.67756001      12.49746002
C        3.92255000      38.91255997      12.49746002
C        0.35755000      35.20755997      12.49746002
O       30.79395703      34.07168452      14.96863048
H       31.73018623      33.85165981      15.12779424
H       30.29002257      33.17687656      14.72187900
O        0.86935450      20.12765174      14.91303716
H        0.56964767      19.17542742      14.90429572
H        1.67625034      20.13792512      15.41788222
O        0.92465045      36.40798798      14.78794483
H        1.68600353      35.83865521      14.61021677
H        1.14031198      36.65404079      15.69108072
C        1.78355000      30.24744000      17.50254000
C        2.49655000      31.48244001      17.50254000
C        1.78355000      32.71744003      17.50254000
C        2.49655000      33.95244000      17.50254000
C        3.92045000      31.48244001      17.50254000
C        0.35545000      32.71744003      17.50254000
C        3.92045000      33.95244000      17.50254000
C        0.35545000      30.24744000      17.50254000
C        1.78145000      30.26756000      12.49746002
C        2.49445000      31.50255997      12.49746002
C        1.78145000      32.73755999      12.49746002
C        2.49445000      33.97256000      12.49746002
C        3.92255000      31.50255997      12.49746002
C        0.35755000      32.73755999      12.49746002
C        3.92255000      33.97256000      12.49746002
C        0.35755000      30.26756000      12.49746002
O        2.94108490      32.46914913      14.96313648
H        2.28915374      31.74181755      14.83872258
H        2.44624477      33.24328971      14.61164923
O        1.31106814      30.08033881      14.99374035
H        0.58959939      30.62986681      15.21048492
H        0.90781058      29.28709959      14.66255074
O        5.20127131      35.93263318      14.98792652
H        5.33989259      36.86901972      14.87543877
H        6.05565467      35.42589088      14.98988088
C        1.78355000      25.30744003      17.50254000
C        2.49655000      26.54243999      17.50254000
C        1.78355000      27.77744001      17.50254000
C        2.49655000      29.01244003      17.50254000
C        3.92045000      26.54243999      17.50254000
C        0.35545000      27.77744001      17.50254000
C        3.92045000      29.01244003      17.50254000
C        0.35545000      25.30744003      17.50254000
C        1.78145000      25.32755998      12.49746002
C        2.49445000      26.56256000      12.49746002
C        1.78145000      27.79755996      12.49746002
C        2.49445000      29.03255998      12.49746002
C        3.92255000      26.56256000      12.49746002
C        0.35755000      27.79755996      12.49746002
C        3.92255000      29.03255998      12.49746002
C        0.35755000      25.32755998      12.49746002
O       11.63319608      27.89132710      15.09588264
H       10.86128367      28.41687112      14.73446169
H       12.37794935      28.36957491      14.64224626
O        4.70956577      30.57498083      15.08911075
H        4.32195271      31.41901905      14.99080046
H        5.65758838      30.45506017      14.95475205
O        7.02630205      29.41743089      14.93752099
H        7.96082134      29.37507540      14.62724180
H        6.86211330      28.47656637      15.22760427
C        1.78355000      20.36744001      17.50254000
C        2.49655000      21.60244003      17.50254000
C        1.78355000      22.83743999      17.50254000
C        2.49655000      24.07244001      17.50254000
C        3.92045000      21.60244003      17.50254000
C        0.35545000      22.83743999      17.50254000
C        3.92045000      24.07244001      17.50254000
C        0.35545000      20.36744001      17.50254000
C        1.78145000      20.38756001      12.49746002
C        2.49445000      21.62255998      12.49746002
C        1.78145000      22.85756000      12.49746002
C        2.49445000      24.09256002      12.49746002
C        3.92255000      21.62255998      12.49746002
C        0.35755000      22.85756000      12.49746002
C        3.92255000      24.09256002      12.49746002
C        0.35755000      20.38756001      12.49746002
O        3.17409224      37.78362570      14.87624109
H        2.90875318      36.93802683      14.49539564
H        3.61935181      37.48272704      15.72968098
O        3.32435518      22.29550495      15.02450304
H        3.63566699      21.37465867      15.15999338
H        4.03478784      22.63588897      14.48275332
O        8.58891166      24.14792655      15.17617208
H        7.69991877      24.47232837      14.79022624
H        9.42466581      24.61070519      15.09340135
C        6.06155000      15.42743999      17.50254000
C        6.77454999      16.66244001      17.50254000
C        6.06155000      17.89744002      17.50254000
C        6.77454999      19.13243999      17.50254000
C        8.19845002      16.66244001      17.50254000
C        4.63345000      17.89744002      17.50254000
C        8.19845002      19.13243999      17.50254000
C        4.63345000      15.42743999      17.50254000
C        6.05945001      15.44755999      12.49746002
C        6.77245000      16.68256001      12.49746002
C        6.05945001      17.91755998      12.49746002
C        6.77245000      19.15256000      12.49746002
C        8.20055001      16.68256001      12.49746002
C        4.63555000      17.91755998      12.49746002
C        8.20055001      19.15256000      12.49746002
C        4.63555000      15.44755999      12.49746002
O        9.55883809       8.96801381      15.09668558
H        9.69053422       9.80220167      14.74875246
H        8.69667052       8.58287410      15.08772015
O        7.97496714       0.96896676      14.91357807
H        7.90244867       0.16126344      15.46993222
H        7.10953132       1.41803816      14.85303917
O        5.77525034      21.00040523      15.04799665
H        5.88226046      20.66564236      14.15548764
H        6.36981295      20.53848592      15.68762802
C        6.06155000      10.48744002      17.50254000
C        6.77454999      11.72243999      17.50254000
C        6.06155000      12.95744000      17.50254000
C        6.77454999      14.19244002      17.50254000
C        8.19845002      11.72243999      17.50254000
C        4.63345000      12.95744000      17.50254000
C        8.19845002      14.19244002      17.50254000
C        4.63345000      10.48744002      17.50254000
C        6.05945001      10.50755997      12.49746002
C        6.77245000      11.74255999      12.49746002
C        6.05945001      12.97756001      12.49746002
C        6.77245000      14.21255998      12.49746002
C        8.20055001      11.74255999      12.49746002
C        4.63555000      12.97756001      12.49746002
C        8.20055001      14.21255998      12.49746002
C        4.63555000      10.50755997      12.49746002
O        3.71134597      14.98430059      14.97825620
H        4.32893428      15.69735408      15.00641620
H        4.27739338      14.21312455      15.04182296
O        6.69447372      13.41371853      15.07035217
H        5.89338110      12.87028049      14.88496500
H        7.47300703      12.84665236      14.92486230
O        9.17309395      11.67644715      14.95258799
H        9.56883933      12.45486528      15.41968466
H        9.63504804      11.83113370      14.10733297
C        6.06155000       5.54744000      17.50254000
C        6.77454999       6.78244002      17.50254000
C        6.06155000       8.01743998      17.50254000
C        6.77454999       9.25244000      17.50254000
C        8.19845002       6.78244002      17.50254000
C        4.63345000       8.01743998      17.50254000
C        8.19845002       9.25244000      17.50254000
C        4.63345000       5.54744000      17.50254000
C        6.05945001       5.56756001      12.49746002
C        6.77245000       6.80255997      12.49746002
C        6.05945001       8.03755999      12.49746002
C        6.77245000       9.27256001      12.49746002
C        8.20055001       6.80255997      12.49746002
C        4.63555000       8.03755999      12.49746002
C        8.20055001       9.27256001      12.49746002
C        4.63555000       5.56756001      12.49746002
O        7.02037878       4.52788586      14.98883030
H        6.73199624       3.70345007      14.68841417
H        6.19379723       4.99224843      14.76631154
O       11.76672329       7.74540284      15.04671934
H       10.93476867       7.53106758      15.46009167
H       12.53974339       7.17064974      15.31789299
O        7.01732884      10.25177027      15.01988534
H        6.45870542      10.54911128      15.67190862
H        7.84769049      10.68818773      14.97017543
C        6.06155000       0.60744001      17.50254000
C        6.77454999       1.84244001      17.50254000
C        6.06155000       3.07744001      17.50254000
C        6.77454999       4.31244001      17.50254000
C        8.19845002       1.84244001      17.50254000
C        4.63345000       3.07744001      17.50254000
C        8.19845002       4.31244001      17.50254000
C        4.63345000       0.60744001      17.50254000
C        6.05945001       0.62755999      12.49746002
C        6.77245000       1.86255999      12.49746002
C        6.05945001       3.09755999      12.49746002
C        6.77245000       4.33255999      12.49746002
C        8.20055001       1.86255999      12.49746002
C        4.63555000       3.09755999      12.49746002
C        8.20055001       4.33255999      12.49746002
C        4.63555000       0.62755999      12.49746002
O        2.94036438       7.07953639      14.94738157
H        2.08546303       7.54081637      14.96907446
H        2.72791361       6.33618726      15.59844731
O        7.29238755       7.78598269      14.88328175
H        6.96661623       8.60164248      15.29702071
H        6.48569787       7.20917841      14.81715211
O        9.29582520       5.96474258      15.08293651
H        8.81938566       6.80828023      15.01519887
H        8.61571041       5.35177928      14.84842527
C        6.06155000      35.18744002      17.50254000
C        6.77454999      36.42244003      17.50254000
C        6.06155000      37.65744000      17.50254000
C        6.77454999      38.89244002      17.50254000
C        8.19845002      36.42244003      17.50254000
C        4.63345000      37.65744000      17.50254000
C        8.19845002      38.89244002      17.50254000
C        4.63345000      35.18744002      17.50254000
C        6.05945001      35.20755997      12.49746002
C        6.77245000      36.44255999      12.49746002
C        6.05945001      37.67756001      12.49746002
C        6.77245000      38.91255997      12.49746002
C        8.20055001      36.44255999      12.49746002
C        4.63555000      37.67756001      12.49746002
C        8.20055001      38.91255997      12.49746002
C        4.63555000      35.20755997      12.49746002
O        7.95170947      32.31403650      15.02993659
H        7.10965814      31.96570801      15.28128718
H        8.40678701      31.51769603      14.99840503
O        5.88634086      26.79429400      14.97499857
H        6.42398783      26.40233234      14.32220281
H        5.86662751      26.20558608      15.74543477
O        5.42865504      38.82797462      15.22424882
H        4.76015130      38.56227510      14.59760343
H        5.84670162       0.11795207      15.02322867
C        6.06155000      30.24744000      17.50254000
C        6.77454999      31.48244001      17.50254000
C        6.06155000      32.71744003      17.50254000
C        6.77454999      33.95244000      17.50254000
C        8.19845002      31.48244001      17.50254000
C        4.63345000      32.71744003      17.50254000
C        8.19845002      33.95244000      17.50254000
C        4.63345000      30.24744000      17.50254000
C        6.05945001      30.26756000      12.49746002
C        6.77245000      31.50255997      12.49746002
C        6.05945001      32.73755999      12.49746002
C        6.77245000      33.97256000      12.49746002
C        8.20055001      31.50255997      12.49746002
C        4.63555000      32.73755999      12.49746002
C        8.20055001      33.97256000      12.49746002
C        4.63555000      30.26756000      12.49746002
O        7.48853314      35.00391898      15.03705045
H        7.62815992      34.00171917      14.91430551
H        8.38391044      35.24029862      15.01785447
O        5.29678600      33.34967306      14.95255250
H        5.43705258      32.81790972      15.71131268
H        4.40020224      32.96418074      14.92856596
O       10.77005879      33.51493381      15.06499447
H        9.89281430      33.23615419      14.80438904
H       11.10274651      32.62354745      15.46515542
C        6.06155000      25.30744003      17.50254000
C        6.77454999      26.54243999      17.50254000
C        6.06155000      27.77744001      17.50254000
C        6.77454999      29.01244003      17.50254000
C        8.19845002      26.54243999      17.50254000
C        4.63345000      27.77744001      17.50254000
C        8.19845002      29.01244003      17.50254000
C        4.63345000      25.30744003      17.50254000
C        6.05945001      25.32755998      12.49746002
C        6.77245000      26.56256000      12.49746002
C        6.05945001      27.79755996      12.49746002
C        6.77245000      29.03255998      12.49746002
C        8.20055001      26.56256000      12.49746002
C        4.63555000      27.79755996      12.49746002
C        8.20055001      29.03255998      12.49746002
C        4.63555000      25.32755998      12.49746002
O        8.83889394      21.22082114      15.06577487
H        8.34346429      20.59319656      14.49972309
H        8.42130944      22.14330110      14.97448635
O        8.58120394      27.03775967      15.02498315
H        9.45593159      27.12073885      14.66855357
H        8.20785631      26.20706480      15.03017111
O        2.93475774      34.90376562      14.87438145
H        3.89417263      35.22068134      14.83904649
H        2.87290501      35.02260795      15.83897869
C        6.06155000      20.36744001      17.50254000
C        6.77454999      21.60244003      17.50254000
C        6.06155000      22.83743999      17.50254000
C        6.77454999      24.07244001      17.50254000
C        8.19845002      21.60244003      17.50254000
C        4.63345000      22.83743999      17.50254000
C        8.19845002      24.07244001      17.50254000
C        4.63345000      20.36744001      17.50254000
C        6.05945001      20.38756001      12.49746002
C        6.77245000      21.62255998      12.49746002
C        6.05945001      22.85756000      12.49746002
C        6.77245000      24.09256002      12.49746002
C        8.20055001      21.62255998      12.49746002
C        4.63555000      22.85756000      12.49746002
C        8.20055001      24.09256002      12.49746002
C        4.63555000      20.38756001      12.49746002
O        7.80010657      37.63572340      14.97050952
H        6.92326639      37.98737582      15.00066055
H        7.72973787      36.75002081      14.67692082
O       11.34770992      22.52566784      14.90827623
H       10.48702338      22.20110980      14.73288216
H       11.14058934      23.46743622      14.97225716
O       11.34853260      25.40904485      14.78874879
H       12.17526636      25.09758489      14.46170459
H       11.49175943      26.31948275      15.06217481
C       10.33955002      15.42743999      17.50254000
C       11.05255000      16.66244001      17.50254000
C       10.33955002      17.89744002      17.50254000
C       11.05255000      19.13243999      17.50254000
C       12.47644999      16.66244001      17.50254000
C        8.91145001      17.89744002      17.50254000
C       12.47644999      19.13243999      17.50254000
C        8.91145001      15.42743999      17.50254000
C       10.33744998      15.44755999      12.49746002
C       11.05045002      16.68256001      12.49746002
C       10.33744998      17.91755998      12.49746002
C       11.05045002      19.15256000      12.49746002
C       12.47854997      16.68256001      12.49746002
C        8.91355000      17.91755998      12.49746002
C       12.47854997      19.15256000      12.49746002
C        8.91355000      15.44755999      12.49746002
O       16.82342088      13.55938651      15.14281483
H       15.89459138      13.28440725      15.35381335
H       16.78842398       9.55128499      14.48693253
O       15.72730576       1.02638054      14.87379655
H       15.41003515       0.44742088      15.54283204
H       15.04225296       1.76466022      14.83439066
O        3.65767683      19.44083775      15.06643326
H        3.39620254      18.60667231      14.76522932
H        4.59398295      19.48318029      15.01199853
C       10.33955002      10.48744002      17.50254000
C       11.05255000      11.72243999      17.50254000
C       10.33955002      12.95744000      17.50254000
C       11.05255000      14.19244002      17.50254000
C       12.47644999      11.72243999      17.50254000
C        8.91145001      12.95744000      17.50254000
C       12.47644999      14.19244002      17.50254000
C        8.91145001      10.48744002      17.50254000
C       10.33744998      10.50755997      12.49746002
C       11.05045002      11.74255999      12.49746002
C       10.33744998      12.97756001      12.49746002
C       11.05045002      14.21255998      12.49746002
C       12.47854997      11.74255999      12.49746002
C        8.91355000      12.97756001      12.49746002
C       12.47854997      14.21255998      12.49746002
C        8.91355000      10.50755997      12.49746002
O        4.61252504       9.17882420      15.12500082
H        5.18265200       8.89043081      14.35610145
H        3.82194379       8.59285016      15.10716027
O        9.58372057      14.41837673      15.07904549
H       10.50934181      14.08499773      15.11240580
H        9.34760216      14.10991974      14.23867434
O       14.35170177      11.65132562      15.09248524
H       13.48609055      11.31772855      14.81616804
H       14.86993306      14.59371408      15.02693045
C       10.33955002       5.54744000      17.50254000
C       11.05255000       6.78244002      17.50254000
C       10.33955002       8.01743998      17.50254000
C       11.05255000       9.25244000      17.50254000
C       12.47644999       6.78244002      17.50254000
C        8.91145001       8.01743998      17.50254000
C       12.47644999       9.25244000      17.50254000
C        8.91145001       5.54744000      17.50254000
C       10.33744998       5.56756001      12.49746002
C       11.05045002       6.80255997      12.49746002
C       10.33744998       8.03755999      12.49746002
C       11.05045002       9.27256001      12.49746002
C       12.47854997       6.80255997      12.49746002
C        8.91355000       8.03755999      12.49746002
C       12.47854997       9.27256001      12.49746002
C        8.91355000       5.56756001      12.49746002
O       14.13136920       6.22981634      14.90167467
H       15.80925711       4.30079874      15.24383047
H       14.20368031       6.27281300      15.86969568
O       16.89304769       7.66744811      14.93699335
H       16.87928429       6.89274950      15.54929209
H       17.87968340       7.84124198      14.90575289
O       12.15765899      10.52578944      15.01322382
H       12.17103336       9.47268556      15.14743562
H       14.39451584       7.82465427      14.93051271
C       10.33955002       0.60744001      17.50254000
C       11.05255000       1.84244001      17.50254000
C       10.33955002       3.07744001      17.50254000
C       11.05255000       4.31244001      17.50254000
C       12.47644999       1.84244001      17.50254000
C        8.91145001       3.07744001      17.50254000
C       12.47644999       4.31244001      17.50254000
C        8.91145001       0.60744001      17.50254000
C       10.33744998       0.62755999      12.49746002
C       11.05045002       1.86255999      12.49746002
C       10.33744998       3.09755999      12.49746002
C       11.05045002       4.33255999      12.49746002
C       12.47854997       1.86255999      12.49746002
C        8.91355000       3.09755999      12.49746002
C       12.47854997       4.33255999      12.49746002
C        8.91355000       0.62755999      12.49746002
O        7.56025731      18.71077655      15.03568631
H        7.89075971      18.61986655      15.94473231
H        8.19377552      18.23116261      14.60693177
O        9.97083346       2.38017610      14.94784358
H        9.80187922       2.77025765      15.78914850
H        9.14208554       1.80948111      14.85206568
O       11.68209067       4.86905685      15.16752236
H       10.86954071       4.35031576      15.13429989
H       11.37737418       5.45129851      14.37416011
C       10.33955002      35.18744002      17.50254000
C       11.05255000      36.42244003      17.50254000
C       10.33955002      37.65744000      17.50254000
C       11.05255000      38.89244002      17.50254000
C       12.47644999      36.42244003      17.50254000
C        8.91145001      37.65744000      17.50254000
C       12.47644999      38.89244002      17.50254000
C        8.91145001      35.18744002      17.50254000
C       10.33744998      35.20755997      12.49746002
C       11.05045002      36.44255999      12.49746002
C       10.33744998      37.67756001      12.49746002
C       11.05045002      38.91255997      12.49746002
C       12.47854997      36.44255999      12.49746002
C        8.91355000      37.67756001      12.49746002
C       12.47854997      38.91255997      12.49746002
C        8.91355000      35.20755997      12.49746002
O       14.17128517      29.34945930      15.06779565
H       14.63439587      29.41105497      15.89025828
H       14.77192744      29.09884550      14.38482303
O       11.06828504      19.76877691      14.95164358
H       10.27402021      20.24424954      15.38491433
H       10.72752506      18.83927777      15.10111021
O       10.00317511      38.61090158      15.03838666
H        9.45970582      38.65684194      14.26019051
H        9.48153093      38.06104610      15.67524419
C       10.33955002      30.24744000      17.50254000
C       11.05255000      31.48244001      17.50254000
C       10.33955002      32.71744003      17.50254000
C       11.05255000      33.95244000      17.50254000
C       12.47644999      31.48244001      17.50254000
C        8.91145001      32.71744003      17.50254000
C       12.47644999      33.95244000      17.50254000
C        8.91145001      30.24744000      17.50254000
C       10.33744998      30.26756000      12.49746002
C       11.05045002      31.50255997      12.49746002
C       10.33744998      32.73755999      12.49746002
C       11.05045002      33.97256000      12.49746002
C       12.47854997      31.50255997      12.49746002
C        8.91355000      32.73755999      12.49746002
C       12.47854997      33.97256000      12.49746002
C        8.91355000      30.26756000      12.49746002
O        9.79078531      35.87755830      15.13018976
H       10.33869334      35.12437571      15.23592348
H       10.10059192      36.26140258      14.33477514
O       12.44603656      37.61721993      14.96747506
H       12.43372231      36.64129793      15.04101384
H       11.45802053      37.94021934      14.87692995
O       12.25319438       0.84881598      14.88331640
H       11.37250029       1.23960323      14.84431083
H       12.21415395      39.49584186      15.14153892
C       10.33955002      25.30744003      17.50254000