1600
Lattice="34.2239999837844 0.0 0.0 0.0 39.520000003664336 0.0 0.0 0.0 30.00000001317236" Properties=species:S:1:pos:R:3 ipi_comment="Step:      422000  Bead:       0 positions{ase}  cell{ase}" pbc="T T T"
C        1.78355000      15.42743999      17.50254000
C        2.49655000      16.66244001      17.50254000
C        1.78355000      17.89744002      17.50254000
C        2.49655000      19.13243999      17.50254000
C        3.92045000      16.66244001      17.50254000
C        0.35545000      17.89744002      17.50254000
C        3.92045000      19.13243999      17.50254000
C        0.35545000      15.42743999      17.50254000
C        1.78145000      15.44755999      12.49746002
C        2.49445000      16.68256001      12.49746002
C        1.78145000      17.91755998      12.49746002
C        2.49445000      19.15256000      12.49746002
C        3.92255000      16.68256001      12.49746002
C        0.35755000      17.91755998      12.49746002
C        3.92255000      19.15256000      12.49746002
C        0.35755000      15.44755999      12.49746002
O        3.02021794      10.91909117      15.05830102
H        3.89364951      11.35417621      15.05127752
H        3.19768004      10.12933016      14.48660985
O        3.25622930       1.06496772      15.06898223
H        3.02543276       0.39220414      14.41752295
H        4.08479586       1.50908212      14.76814049
O        1.11049602      19.26537807      15.07704124
H        0.21535683      18.78877058      15.06449270
H        0.99951782      19.89992775      14.36281754
C        1.78355000      10.48744002      17.50254000
C        2.49655000      11.72243999      17.50254000
C        1.78355000      12.95744000      17.50254000
C        2.49655000      14.19244002      17.50254000
C        3.92045000      11.72243999      17.50254000
C        0.35545000      12.95744000      17.50254000
C        3.92045000      14.19244002      17.50254000
C        0.35545000      10.48744002      17.50254000
C        1.78145000      10.50755997      12.49746002
C        2.49445000      11.74255999      12.49746002
C        1.78145000      12.97756001      12.49746002
C        2.49445000      14.21255998      12.49746002
C        3.92255000      11.74255999      12.49746002
C        0.35755000      12.97756001      12.49746002
C        3.92255000      14.21255998      12.49746002
C        0.35755000      10.50755997      12.49746002
O        1.02365603      16.20892894      15.01008954
H        0.92553508      16.94983844      14.41063169
H        0.28008534      15.61079913      14.87641038
O        0.90164716      12.33613412      14.93093029
H        1.11201120      12.88502455      15.74145098
H        1.67847627      11.70724418      14.92355716
O        3.27614705      14.69001139      15.00662320
H        3.08578226      13.88126881      14.58694868
H        2.46918478      15.28330457      14.90717225
C        1.78355000       5.54744000      17.50254000
C        2.49655000       6.78244002      17.50254000
C        1.78355000       8.01743998      17.50254000
C        2.49655000       9.25244000      17.50254000
C        3.92045000       6.78244002      17.50254000
C        0.35545000       8.01743998      17.50254000
C        3.92045000       9.25244000      17.50254000
C        0.35545000       5.54744000      17.50254000
C        1.78145000       5.56756001      12.49746002
C        2.49445000       6.80255997      12.49746002
C        1.78145000       8.03755999      12.49746002
C        2.49445000       9.27256001      12.49746002
C        3.92255000       6.80255997      12.49746002
C        0.35755000       8.03755999      12.49746002
C        3.92255000       9.27256001      12.49746002
C        0.35755000       5.56756001      12.49746002
O        3.06717840       4.72308237      14.97988968
H        3.46983900       3.88358128      15.29562746
H        3.82134497       5.35237510      15.04252621
O        3.18722545       8.04316813      15.12293443
H        3.12629108       7.33289989      14.48040143
H        2.26045244       8.45619281      15.16104549
O        1.06993435       9.17422770      14.91869124
H        1.04999177       9.95563648      15.49488902
H        0.20409602       8.70486076      14.97073142
C        1.78355000       0.60744001      17.50254000
C        2.49655000       1.84244001      17.50254000
C        1.78355000       3.07744001      17.50254000
C        2.49655000       4.31244001      17.50254000
C        3.92045000       1.84244001      17.50254000
C        0.35545000       3.07744001      17.50254000
C        3.92045000       4.31244001      17.50254000
C        0.35545000       0.60744001      17.50254000
C        1.78145000       0.62755999      12.49746002
C        2.49445000       1.86255999      12.49746002
C        1.78145000       3.09755999      12.49746002
C        2.49445000       4.33255999      12.49746002
C        3.92255000       1.86255999      12.49746002
C        0.35755000       3.09755999      12.49746002
C        3.92255000       4.33255999      12.49746002
C        0.35755000       0.62755999      12.49746002
O        3.22573014      17.83911107      14.98508093
H        2.42674610      18.41293395      14.99349763
H        3.01684327      17.20296291      15.65667356
O        1.10351799       2.43990678      14.89064414
H        1.31239964       3.29389678      15.22662564
H        1.97260577       1.93172779      15.01139665
O        0.95068508       6.32128285      14.91919246
H        0.79820147       6.93991753      15.64955681
H        1.76896367       5.83574640      15.09332672
C        1.78355000      35.18744002      17.50254000
C        2.49655000      36.42244003      17.50254000
C        1.78355000      37.65744000      17.50254000
C        2.49655000      38.89244002      17.50254000
C        3.92045000      36.42244003      17.50254000
C        0.35545000      37.65744000      17.50254000
C        3.92045000      38.89244002      17.50254000
C        0.35545000      35.18744002      17.50254000
C        1.78145000      35.20755997      12.49746002
C        2.49445000      36.44255999      12.49746002
C        1.78145000      37.67756001      12.49746002
C        2.49445000      38.91255997      12.49746002
C        3.92255000      36.44255999      12.49746002
C        0.35755000      37.67756001      12.49746002
C        3.92255000      38.91255997      12.49746002
C        0.35755000      35.20755997      12.49746002
O        3.23190981      30.71718559      14.96109358
H        3.37272309      30.11787782      15.69230118
H        3.98026621      31.31793881      14.93016993
O        3.31473465      20.91527066      14.93390140
H        3.09964146      20.17282660      15.50920438
H        2.43353723      21.38696237      14.82833593
O        1.18072822      38.96064564      14.94660243
H        0.29005262      38.53685482      14.91598681
H        1.12676182       0.09083339      15.67445395
C        1.78355000      30.24744000      17.50254000
C        2.49655000      31.48244001      17.50254000
C        1.78355000      32.71744003      17.50254000
C        2.49655000      33.95244000      17.50254000
C        3.92045000      31.48244001      17.50254000
C        0.35545000      32.71744003      17.50254000
C        3.92045000      33.95244000      17.50254000
C        0.35545000      30.24744000      17.50254000
C        1.78145000      30.26756000      12.49746002
C        2.49445000      31.50255997      12.49746002
C        1.78145000      32.73755999      12.49746002
C        2.49445000      33.97256000      12.49746002
C        3.92255000      31.50255997      12.49746002
C        0.35755000      32.73755999      12.49746002
C        3.92255000      33.97256000      12.49746002
C        0.35755000      30.26756000      12.49746002
O        1.17764432      36.15878607      14.97795414
H        1.01238076      36.83208681      15.57452086
H        0.33676857      35.63982846      15.03468545
O       33.10569868      30.79048197      14.96321605
H       33.06804141      30.07305867      15.57668656
H       33.99419025      31.21424925      14.99632361
O        1.09507736      32.11736121      15.10840030
H        1.97289983      31.63822767      15.12447102
H        1.13728378      32.94908580      14.59228303
C        1.78355000      25.30744003      17.50254000
C        2.49655000      26.54243999      17.50254000
C        1.78355000      27.77744001      17.50254000
C        2.49655000      29.01244003      17.50254000
C        3.92045000      26.54243999      17.50254000
C        0.35545000      27.77744001      17.50254000
C        3.92045000      29.01244003      17.50254000
C        0.35545000      25.30744003      17.50254000
C        1.78145000      25.32755998      12.49746002
C        2.49445000      26.56256000      12.49746002
C        1.78145000      27.79755996      12.49746002
C        2.49445000      29.03255998      12.49746002
C        3.92255000      26.56256000      12.49746002
C        0.35755000      27.79755996      12.49746002
C        3.92255000      29.03255998      12.49746002
C        0.35755000      25.32755998      12.49746002
O        3.06067133      24.73279313      14.91147254
H        4.00792546      25.05923886      15.05647036
H        3.05006808      23.77066420      14.98778945
O        3.24026910      27.75686596      14.96017407
H        3.15096129      26.90209567      15.39115725
H        2.38240766      28.22500998      15.12430134
O       33.17761772      27.78133013      14.94297161
H       32.25171211      28.12296481      15.06251294
H       33.32886330      26.97474485      15.39416481
C        1.78355000      20.36744001      17.50254000
C        2.49655000      21.60244003      17.50254000
C        1.78355000      22.83743999      17.50254000
C        2.49655000      24.07244001      17.50254000
C        3.92045000      21.60244003      17.50254000
C        0.35545000      22.83743999      17.50254000
C        3.92045000      24.07244001      17.50254000
C        0.35545000      20.36744001      17.50254000
C        1.78145000      20.38756001      12.49746002
C        2.49445000      21.62255998      12.49746002
C        1.78145000      22.85756000      12.49746002
C        2.49445000      24.09256002      12.49746002
C        3.92255000      21.62255998      12.49746002
C        0.35755000      22.85756000      12.49746002
C        3.92255000      24.09256002      12.49746002
C        0.35755000      20.38756001      12.49746002
O        3.32592214      37.59307130      15.08447808
H        3.11552848      36.93177094      14.39943960
H        2.48852455      38.16114598      15.01294240
O        1.03754477      22.17785768      14.98626912
H        0.12802982      21.71999967      15.14330457
H        1.13218538      23.00365980      15.43306942
O        0.90423652      26.24583305      14.95335115
H        1.64643937      25.59488024      14.85880363
H        1.09088793      27.00128812      14.41468522
C        6.06155000      15.42743999      17.50254000
C        6.77454999      16.66244001      17.50254000
C        6.06155000      17.89744002      17.50254000
C        6.77454999      19.13243999      17.50254000
C        8.19845002      16.66244001      17.50254000
C        4.63345000      17.89744002      17.50254000
C        8.19845002      19.13243999      17.50254000
C        4.63345000      15.42743999      17.50254000
C        6.05945001      15.44755999      12.49746002
C        6.77245000      16.68256001      12.49746002
C        6.05945001      17.91755998      12.49746002
C        6.77245000      19.15256000      12.49746002
C        8.20055001      16.68256001      12.49746002
C        4.63555000      17.91755998      12.49746002
C        8.20055001      19.15256000      12.49746002
C        4.63555000      15.44755999      12.49746002
O        7.50608127      10.97966415      15.04625636
H        8.35474238      11.48081617      15.04146665
H        7.64067917      10.15677675      14.50996792
O        7.74235715       1.11671589      14.97426610
H        8.66542878       0.69913818      15.14988081
H        7.22611493       0.48700224      14.44519623
O        5.42687876      19.07873558      15.09346600
H        5.51430916      19.59736436      14.27957103
H        4.57431380      18.56101059      15.07867179
C        6.06155000      10.48744002      17.50254000
C        6.77454999      11.72243999      17.50254000
C        6.06155000      12.95744000      17.50254000
C        6.77454999      14.19244002      17.50254000
C        8.19845002      11.72243999      17.50254000
C        4.63345000      12.95744000      17.50254000
C        8.19845002      14.19244002      17.50254000
C        4.63345000      10.48744002      17.50254000
C        6.05945001      10.50755997      12.49746002
C        6.77245000      11.74255999      12.49746002
C        6.05945001      12.97756001      12.49746002
C        6.77245000      14.21255998      12.49746002
C        8.20055001      11.74255999      12.49746002
C        4.63555000      12.97756001      12.49746002
C        8.20055001      14.21255998      12.49746002
C        4.63555000      10.50755997      12.49746002
O        5.43158719      16.19784476      15.05344386
H        5.33652377      16.97377057      14.48306229
H        4.62471356      15.61649197      14.94824554
O        5.29539868      12.22326695      14.92614843
H        5.33540373      13.05717556      15.38105213
H        6.16498348      11.74321071      15.04159434
O        7.53650521      14.66235348      15.05778790
H        7.46194467      13.75336196      14.75548425
H        6.69578258      15.22225256      14.86714858
C        6.06155000       5.54744000      17.50254000
C        6.77454999       6.78244002      17.50254000
C        6.06155000       8.01743998      17.50254000
C        6.77454999       9.25244000      17.50254000
C        8.19845002       6.78244002      17.50254000
C        4.63345000       8.01743998      17.50254000
C        8.19845002       9.25244000      17.50254000
C        4.63345000       5.54744000      17.50254000
C        6.05945001       5.56756001      12.49746002
C        6.77245000       6.80255997      12.49746002
C        6.05945001       8.03755999      12.49746002
C        6.77245000       9.27256001      12.49746002
C        8.20055001       6.80255997      12.49746002
C        4.63555000       8.03755999      12.49746002
C        8.20055001       9.27256001      12.49746002
C        4.63555000       5.56756001      12.49746002
O        5.42455886       2.58306099      15.05349432
H        5.72404352       3.45110267      14.68199574
H        6.28368171       2.10129444      15.23194504
O        7.47822881       7.97655215      15.03732142
H        7.48176491       7.27575143      14.36989155
H        6.61936316       8.50577509      14.91024879
O        5.38333227       9.30255535      14.99902244
H        5.35399379       9.91773013      15.71684723
H        4.49232243       8.84944864      14.98623873
C        6.06155000       0.60744001      17.50254000
C        6.77454999       1.84244001      17.50254000
C        6.06155000       3.07744001      17.50254000
C        6.77454999       4.31244001      17.50254000
C        8.19845002       1.84244001      17.50254000
C        4.63345000       3.07744001      17.50254000
C        8.19845002       4.31244001      17.50254000
C        4.63345000       0.60744001      17.50254000
C        6.05945001       0.62755999      12.49746002
C        6.77245000       1.86255999      12.49746002
C        6.05945001       3.09755999      12.49746002
C        6.77245000       4.33255999      12.49746002
C        8.20055001       1.86255999      12.49746002
C        4.63555000       3.09755999      12.49746002
C        8.20055001       4.33255999      12.49746002
C        4.63555000       0.62755999      12.49746002
O        7.60986963      17.78689628      15.00830717
H        6.69090409      18.17547706      15.07480633
H        7.75134217      17.01783827      15.57040725
O        5.22054075       6.39363207      14.84148360
H        6.00605423       5.81163638      14.90813648
H        5.32059896       7.02004479      15.57254830
O        7.38207893       4.92806411      14.90588535
H        8.26225302       5.45890202      14.94460151
H        7.25060896       4.61085498      15.78929120
C        6.06155000      35.18744002      17.50254000
C        6.77454999      36.42244003      17.50254000
C        6.06155000      37.65744000      17.50254000
C        6.77454999      38.89244002      17.50254000
C        8.19845002      36.42244003      17.50254000
C        4.63345000      37.65744000      17.50254000
C        8.19845002      38.89244002      17.50254000
C        4.63345000      35.18744002      17.50254000
C        6.05945001      35.20755997      12.49746002
C        6.77245000      36.44255999      12.49746002
C        6.05945001      37.67756001      12.49746002
C        6.77245000      38.91255997      12.49746002
C        8.20055001      36.44255999      12.49746002
C        4.63555000      37.67756001      12.49746002
C        8.20055001      38.91255997      12.49746002
C        4.63555000      35.20755997      12.49746002
O        7.37310118      30.88867606      14.97930753
H        8.23634997      31.36947852      14.92774902
H        7.47136597      30.03718891      15.45334707
O        7.48165512      20.74680262      14.90418322
H        7.49050910      20.14815614      15.66928424
H        6.75559248      21.41651210      15.00680099
O        5.44601168      39.00452651      14.97804131
H        4.60202671      38.45769345      14.90133299
H        5.28557969       0.05234241      15.72393049
C        6.06155000      30.24744000      17.50254000
C        6.77454999      31.48244001      17.50254000
C        6.06155000      32.71744003      17.50254000
C        6.77454999      33.95244000      17.50254000
C        8.19845002      31.48244001      17.50254000
C        4.63345000      32.71744003      17.50254000
C        8.19845002      33.95244000      17.50254000
C        4.63345000      30.24744000      17.50254000
C        6.05945001      30.26756000      12.49746002
C        6.77245000      31.50255997      12.49746002
C        6.05945001      32.73755999      12.49746002
C        6.77245000      33.97256000      12.49746002
C        8.20055001      31.50255997      12.49746002
C        4.63555000      32.73755999      12.49746002
C        8.20055001      33.97256000      12.49746002
C        4.63555000      30.26756000      12.49746002
O        5.42127771      36.00322337      14.98339224
H        5.41214220      36.81861871      15.51245290
H        4.51513139      35.61984640      14.95969936
O        5.30927316      32.32727250      15.02358091
H        5.37053245      33.11697563      14.48061651
H        6.15888537      31.88456948      14.98752031
O        3.16712334      34.61805991      14.93227590
H        3.29336825      33.96541322      15.62531418
H        2.30978914      35.12976474      15.08124228
C        6.06155000      25.30744003      17.50254000
C        6.77454999      26.54243999      17.50254000
C        6.06155000      27.77744001      17.50254000
C        6.77454999      29.01244003      17.50254000
C        8.19845002      26.54243999      17.50254000
C        4.63345000      27.77744001      17.50254000
C        8.19845002      29.01244003      17.50254000
C        4.63345000      25.30744003      17.50254000
C        6.05945001      25.32755998      12.49746002
C        6.77245000      26.56256000      12.49746002
C        6.05945001      27.79755996      12.49746002
C        6.77245000      29.03255998      12.49746002
C        8.20055001      26.56256000      12.49746002
C        4.63555000      27.79755996      12.49746002
C        8.20055001      29.03255998      12.49746002
C        4.63555000      25.32755998      12.49746002
O        5.48369922      22.13187886      14.96797660
H        5.22967917      23.03491080      15.07852377
H        4.61812321      21.67431127      15.08428454
O        7.53462309      27.76860949      14.92058507
H        6.60360921      28.15366200      14.97193147
H        7.36799671      27.03786769      15.54282810
O        5.40166195      29.00282906      15.09091007
H        5.17426508      29.63437448      14.33936039
H        4.55794652      28.39355550      15.17317502
C        6.06155000      20.36744001      17.50254000
C        6.77454999      21.60244003      17.50254000
C        6.06155000      22.83743999      17.50254000
C        6.77454999      24.07244001      17.50254000
C        8.19845002      21.60244003      17.50254000
C        4.63345000      22.83743999      17.50254000
C        8.19845002      24.07244001      17.50254000
C        4.63345000      20.36744001      17.50254000
C        6.05945001      20.38756001      12.49746002
C        6.77245000      21.62255998      12.49746002
C        6.05945001      22.85756000      12.49746002
C        6.77245000      24.09256002      12.49746002
C        8.20055001      21.62255998      12.49746002
C        4.63555000      22.85756000      12.49746002
C        8.20055001      24.09256002      12.49746002
C        4.63555000      20.38756001      12.49746002
O        7.54697754      37.56920315      15.06424583
H        7.55628409      36.78438425      14.48169928
H        6.69215431      38.04102538      15.01269432
O        5.31022334      26.00778618      15.05978612
H        6.12054155      25.51394957      15.00731241
H        5.35550451      26.77107123      14.42490229
O        9.55847914      26.02957307      15.07378663
H        9.57767739      26.82314134      14.46266233
H       10.39613330      25.51741549      14.93294007
C       10.33955002      15.42743999      17.50254000
C       11.05255000      16.66244001      17.50254000
C       10.33955002      17.89744002      17.50254000
C       11.05255000      19.13243999      17.50254000
C       12.47644999      16.66244001      17.50254000
C        8.91145001      17.89744002      17.50254000
C       12.47644999      19.13243999      17.50254000
C        8.91145001      15.42743999      17.50254000
C       10.33744998      15.44755999      12.49746002
C       11.05045002      16.68256001      12.49746002
C       10.33744998      17.91755998      12.49746002
C       11.05045002      19.15256000      12.49746002
C       12.47854997      16.68256001      12.49746002
C        8.91355000      17.91755998      12.49746002
C       12.47854997      19.15256000      12.49746002
C        8.91355000      15.44755999      12.49746002
O       11.76764225      10.81385392      15.06235051
H       12.56320587      11.40831255      14.90585026
H       11.62942702      10.22441862      14.35354950
O       11.77561594       1.22096094      15.00572823
H       11.57701973       0.53433150      14.36596484
H       10.98585036       1.77186302      15.12778414
O        9.65917530      19.18708610      15.04371329
H        9.68599771      19.80731452      14.30282199
H        8.82393318      18.69662581      14.95624511
C       10.33955002      10.48744002      17.50254000
C       11.05255000      11.72243999      17.50254000
C       10.33955002      12.95744000      17.50254000
C       11.05255000      14.19244002      17.50254000
C       12.47644999      11.72243999      17.50254000
C        8.91145001      12.95744000      17.50254000
C       12.47644999      14.19244002      17.50254000
C        8.91145001      10.48744002      17.50254000
C       10.33744998      10.50755997      12.49746002
C       11.05045002      11.74255999      12.49746002
C       10.33744998      12.97756001      12.49746002
C       11.05045002      14.21255998      12.49746002
C       12.47854997      11.74255999      12.49746002
C        8.91355000      12.97756001      12.49746002
C       12.47854997      14.21255998      12.49746002
C        8.91355000      10.50755997      12.49746002
O        9.77545351      15.92873385      15.00278389
H        9.71459854      16.61817167      14.35148240
H        8.90778640      15.40239813      14.90413570
O        9.65561067      12.26707224      14.96345442
H        9.70437567      13.06255999      15.50429228
H       10.47472697      11.68828798      15.06190863
O       11.76678404      14.41514519      15.14732516
H       11.12109312      15.15664468      14.95411710
H       11.61122682      13.70925043      14.48488925
C       10.33955002       5.54744000      17.50254000
C       11.05255000       6.78244002      17.50254000
C       10.33955002       8.01743998      17.50254000
C       11.05255000       9.25244000      17.50254000
C       12.47644999       6.78244002      17.50254000
C        8.91145001       8.01743998      17.50254000
C       12.47644999       9.25244000      17.50254000
C        8.91145001       5.54744000      17.50254000
C       10.33744998       5.56756001      12.49746002
C       11.05045002       6.80255997      12.49746002
C       10.33744998       8.03755999      12.49746002
C       11.05045002       9.27256001      12.49746002
C       12.47854997       6.80255997      12.49746002
C        8.91355000       8.03755999      12.49746002
C       12.47854997       9.27256001      12.49746002
C        8.91355000       5.56756001      12.49746002
O       11.78931676       4.92345094      15.09214288
H       12.56905421       5.55523339      15.07710951
H       11.89673152       4.31142047      14.34216730
O       11.73187081       7.99104958      15.07657176
H       10.93190871       8.52530838      15.10779605
H       11.68204186       7.27941376      14.46762370
O        9.59786188       9.24906177      14.97449452
H        8.71079943       8.72596059      15.02738480
H        9.50079449       9.90320827      15.66752511
C       10.33955002       0.60744001      17.50254000
C       11.05255000       1.84244001      17.50254000
C       10.33955002       3.07744001      17.50254000
C       11.05255000       4.31244001      17.50254000
C       12.47644999       1.84244001      17.50254000
C        8.91145001       3.07744001      17.50254000
C       12.47644999       4.31244001      17.50254000
C        8.91145001       0.60744001      17.50254000
C       10.33744998       0.62755999      12.49746002
C       11.05045002       1.86255999      12.49746002
C       10.33744998       3.09755999      12.49746002
C       11.05045002       4.33255999      12.49746002
C       12.47854997       1.86255999      12.49746002
C        8.91355000       3.09755999      12.49746002
C       12.47854997       4.33255999      12.49746002
C        8.91355000       0.62755999      12.49746002
O       11.70490816      17.90402376      14.93602140
H       11.62303773      17.27033714      15.65836595
H       10.86066648      18.46547575      14.96527760
O        9.70479312       2.81298598      15.01552110
H        8.78769613       2.47340503      14.81839448
H        9.63391909       3.76078744      15.20960009
O        9.62821614       6.16093527      15.02205170
H       10.45600946       5.65079177      15.17189628
H        9.67141516       6.94562895      15.61757655
C       10.33955002      35.18744002      17.50254000
C       11.05255000      36.42244003      17.50254000
C       10.33955002      37.65744000      17.50254000
C       11.05255000      38.89244002      17.50254000
C       12.47644999      36.42244003      17.50254000
C        8.91145001      37.65744000      17.50254000
C       12.47644999      38.89244002      17.50254000
C        8.91145001      35.18744002      17.50254000
C       10.33744998      35.20755997      12.49746002
C       11.05045002      36.44255999      12.49746002
C       10.33744998      37.67756001      12.49746002
C       11.05045002      38.91255997      12.49746002
C       12.47854997      36.44255999      12.49746002
C        8.91355000      37.67756001      12.49746002
C       12.47854997      38.91255997      12.49746002
C        8.91355000      35.20755997      12.49746002
O        9.59722726      32.16046512      14.90550846
H       10.41071862      31.63479182      15.17067360
H        9.62086336      32.99596078      15.41345060
O       11.74168468      20.83513208      14.84844511
H       10.97782271      21.46779812      14.95544491
H       11.74247105      20.35335647      15.67912990
O        9.59679588      39.04094489      14.95598926
H       10.44472898      38.55738104      15.05814636
H        8.84908427      38.39709979      15.01198417
C       10.33955002      30.24744000      17.50254000
C       11.05255000      31.48244001      17.50254000
C       10.33955002      32.71744003      17.50254000
C       11.05255000      33.95244000      17.50254000
C       12.47644999      31.48244001      17.50254000
C        8.91145001      32.71744003      17.50254000
C       12.47644999      33.95244000      17.50254000
C        8.91145001      30.24744000      17.50254000
C       10.33744998      30.26756000      12.49746002
C       11.05045002      31.50255997      12.49746002
C       10.33744998      32.73755999      12.49746002
C       11.05045002      33.97256000      12.49746002
C       12.47854997      31.50255997      12.49746002
C        8.91355000      32.73755999      12.49746002
C       12.47854997      33.97256000      12.49746002
C        8.91355000      30.26756000      12.49746002
O        9.70175987      35.87117569      14.97501749
H        8.81669133      35.36600546      15.01032787
H        9.62253091      36.57042606      15.60121659
O        7.52643884      34.61268423      14.95305660
H        7.53587517      33.79325281      15.44690331
H        6.65518630      35.08734169      15.10153981
O       13.96902529      36.12691419      14.94046656
H       13.11023537      35.65152723      14.95073486
H       13.91678714      36.78174853      15.63977132
C       10.33955002      25.30744003      17.50254000