1792
Lattice="34.2239999837844 0.0 0.0 0.0 39.520000003664336 0.0 0.0 0.0 30.00000001317236" Properties=species:S:1:pos:R:3 ipi_comment="Step:      395000  Bead:       0 positions{ase}  cell{ase}" pbc="T T T"
C        1.78355000      15.42743999      17.50254000
C        2.49655000      16.66244001      17.50254000
C        1.78355000      17.89744002      17.50254000
C        2.49655000      19.13243999      17.50254000
C        3.92045000      16.66244001      17.50254000
C        0.35545000      17.89744002      17.50254000
C        3.92045000      19.13243999      17.50254000
C        0.35545000      15.42743999      17.50254000
C        1.78145000      15.44755999      12.49746002
C        2.49445000      16.68256001      12.49746002
C        1.78145000      17.91755998      12.49746002
C        2.49445000      19.15256000      12.49746002
C        3.92255000      16.68256001      12.49746002
C        0.35755000      17.91755998      12.49746002
C        3.92255000      19.15256000      12.49746002
C        0.35755000      15.44755999      12.49746002
O        3.21105883      15.58903675      15.05957355
H        3.21720967      14.81063053      14.52823219
H        1.95514935      16.26645747      14.95177038
O        1.08410063       9.13582588      14.92941476
H        1.10011786      10.00467200      15.34867277
H        0.18303471       8.71737803      14.98295756
O        1.08421029      11.55393425      14.95925764
H       33.95715627      11.04208922      15.08259606
H        1.11774339      12.17091162      15.70496615
O        3.22481869      10.62794543      15.08268905
H        2.09426306      11.13802791      15.03214996
H        3.28474010       9.85277480      14.52491530
C        1.78355000      10.48744002      17.50254000
C        2.49655000      11.72243999      17.50254000
C        1.78355000      12.95744000      17.50254000
C        2.49655000      14.19244002      17.50254000
C        3.92045000      11.72243999      17.50254000
C        0.35545000      12.95744000      17.50254000
C        3.92045000      14.19244002      17.50254000
C        0.35545000      10.48744002      17.50254000
C        1.78145000      10.50755997      12.49746002
C        2.49445000      11.74255999      12.49746002
C        1.78145000      12.97756001      12.49746002
C        2.49445000      14.21255998      12.49746002
C        3.92255000      11.74255999      12.49746002
C        0.35755000      12.97756001      12.49746002
C        3.92255000      14.21255998      12.49746002
C        0.35755000      10.50755997      12.49746002
O        3.21902232      13.07409153      15.00461066
H        3.33713706      12.28177021      14.47102577
H        2.21740758      13.45280146      14.98799589
O        3.21879558       0.68748027      15.00476139
H        4.09758042       1.09484991      14.97289970
H        1.89633637       1.20284797      14.91705235
O        1.12799803      19.02055619      14.99592293
H        1.03598990      19.73505225      15.63090138
H        0.25979007      18.51294668      14.91669975
O        3.20100431      18.00972332      14.99792351
H        3.21583855      17.31019171      14.37566288
H        2.24226152      18.32736905      15.14588517
C        1.78355000       5.54744000      17.50254000
C        2.49655000       6.78244002      17.50254000
C        1.78355000       8.01743998      17.50254000
C        2.49655000       9.25244000      17.50254000
C        3.92045000       6.78244002      17.50254000
C        0.35545000       8.01743998      17.50254000
C        3.92045000       9.25244000      17.50254000
C        0.35545000       5.54744000      17.50254000
C        1.78145000       5.56756001      12.49746002
C        2.49445000       6.80255997      12.49746002
C        1.78145000       8.03755999      12.49746002
C        2.49445000       9.27256001      12.49746002
C        3.92255000       6.80255997      12.49746002
C        0.35755000       8.03755999      12.49746002
C        3.92255000       9.27256001      12.49746002
C        0.35755000       5.56756001      12.49746002
O        0.99986116      16.59099855      14.96898983
H       33.96468018      16.00130035      14.92319350
H        0.87024638      17.19568252      15.69688384
O        1.02415627       1.68387636      14.92667225
H        1.13394172       2.48725144      15.43847165
H       33.15204776      39.43853908      14.39707952
O        3.20610193       3.12020991      15.12784736
H        4.51368040       3.74761029      15.10377826
H        3.16160671       2.35872832      14.57497497
O        1.06919541       4.17614092      14.85300072
H        1.02015386       4.89693843      15.53083702
H        2.29165767       3.55817415      15.03445559
C        1.78355000       0.60744001      17.50254000
C        2.49655000       1.84244001      17.50254000
C        1.78355000       3.07744001      17.50254000
C        2.49655000       4.31244001      17.50254000
C        3.92045000       1.84244001      17.50254000
C        0.35545000       3.07744001      17.50254000
C        3.92045000       4.31244001      17.50254000
C        0.35545000       0.60744001      17.50254000
C        1.78145000       0.62755999      12.49746002
C        2.49445000       1.86255999      12.49746002
C        1.78145000       3.09755999      12.49746002
C        2.49445000       4.33255999      12.49746002
C        3.92255000       1.86255999      12.49746002
C        0.35755000       3.09755999      12.49746002
C        3.92255000       4.33255999      12.49746002
C        0.35755000       0.62755999      12.49746002
O        1.08964528       6.65212919      15.02243710
H        1.18573806       7.34183084      15.69788843
H        2.05695126       6.23304108      15.02288463
O        3.18940817       5.56718225      14.98282274
H        3.23956620       4.82137936      14.42102724
H        4.10604733       5.97371528      14.99458891
O        3.21646784       8.14689443      15.04619995
H        2.26066723       8.59129946      15.01964277
H        3.25939645       7.48850641      14.35197899
O        1.08029311      14.10281891      14.93425399
H        1.00739240      14.98602632      15.32313065
H        0.16705154      13.71958396      15.02902552
C        6.06155000      15.42743999      17.50254000
C        6.77454999      16.66244001      17.50254000
C        6.06155000      17.89744002      17.50254000
C        6.77454999      19.13243999      17.50254000
C        8.19845002      16.66244001      17.50254000
C        4.63345000      17.89744002      17.50254000
C        8.19845002      19.13243999      17.50254000
C        4.63345000      15.42743999      17.50254000
C        6.05945001      15.44755999      12.49746002
C        6.77245000      16.68256001      12.49746002
C        6.05945001      17.91755998      12.49746002
C        6.77245000      19.15256000      12.49746002
C        8.20055001      16.68256001      12.49746002
C        4.63555000      17.91755998      12.49746002
C        8.20055001      19.15256000      12.49746002
C        4.63555000      15.44755999      12.49746002
O        7.50212953      15.52323665      14.97182892
H        7.53971609      14.88827465      14.27728484
H        5.37401687      17.24743932      15.62688997
O        5.40405687       9.09599837      15.00508659
H        5.36519150       9.99066071      15.35857167
H        4.49126841       8.69569288      15.03151232
O        5.37785786      11.58643854      14.94728582
H        4.18519038      11.02642511      15.09523269
H        5.30445008      12.44145782      15.44345893
O        7.56770331      10.58948215      15.08185828
H        6.35365814      11.20884347      14.98907207
H        7.56214687       9.90009621      14.42221893
C        6.06155000      10.48744002      17.50254000
C        6.77454999      11.72243999      17.50254000
C        6.06155000      12.95744000      17.50254000
C        6.77454999      14.19244002      17.50254000
C        8.19845002      11.72243999      17.50254000
C        4.63345000      12.95744000      17.50254000
C        8.19845002      14.19244002      17.50254000
C        4.63345000      10.48744002      17.50254000
C        6.05945001      10.50755997      12.49746002
C        6.77245000      11.74255999      12.49746002
C        6.05945001      12.97756001      12.49746002
C        6.77245000      14.21255998      12.49746002
C        8.20055001      11.74255999      12.49746002
C        4.63555000      12.97756001      12.49746002
C        8.20055001      14.21255998      12.49746002
C        4.63555000      10.50755997      12.49746002
O        7.53874979      13.02561736      15.10169237
H        7.54329462      12.43609466      14.30168365
H        6.68264882      13.58118746      15.06641110
O        7.41475318       0.61628511      15.03721373
H        7.38268727       0.09303565      14.23396294
H        6.20230918       1.20488780      14.91957535
O        5.34325447      19.14188030      15.02698290
H        5.28617361      19.95988633      15.52309344
H        4.45063201      18.66275936      15.07260417
O        7.45834334      18.02308422      14.98596181
H        7.41095531      17.31829870      14.33603429
H        6.58120099      18.50336465      15.00045789
C        6.06155000       5.54744000      17.50254000
C        6.77454999       6.78244002      17.50254000
C        6.06155000       8.01743998      17.50254000
C        6.77454999       9.25244000      17.50254000
C        8.19845002       6.78244002      17.50254000
C        4.63345000       8.01743998      17.50254000
C        8.19845002       9.25244000      17.50254000
C        4.63345000       5.54744000      17.50254000
C        6.05945001       5.56756001      12.49746002
C        6.77245000       6.80255997      12.49746002
C        6.05945001       8.03755999      12.49746002
C        6.77245000       9.27256001      12.49746002
C        8.20055001       6.80255997      12.49746002
C        4.63555000       8.03755999      12.49746002
C        8.20055001       9.27256001      12.49746002
C        4.63555000       5.56756001      12.49746002
O        5.32256272      16.60681408      14.92760403
H        4.14344324      15.99243096      15.01395265
H        6.19176805      16.12113415      14.95323692
O        5.29104194       1.67867589      14.92010247
H        5.32243649       2.35646806      15.61452495
H        3.29124422      39.40028149      14.51674061
O        7.48812106       3.09091636      14.99201742
H        9.54377843       5.06156446      15.56211058
H        7.43930049       2.34760059      14.39526869
O        5.40181785       4.18752743      14.92904795
H        5.41770631       4.94895917      15.46063971
H        6.55487918       3.48849352      14.98700961
C        6.06155000       0.60744001      17.50254000
C        6.77454999       1.84244001      17.50254000
C        6.06155000       3.07744001      17.50254000
C        6.77454999       4.31244001      17.50254000
C        8.19845002       1.84244001      17.50254000
C        4.63345000       3.07744001      17.50254000
C        8.19845002       4.31244001      17.50254000
C        4.63345000       0.60744001      17.50254000
C        6.05945001       0.62755999      12.49746002
C        6.77245000       1.86255999      12.49746002
C        6.05945001       3.09755999      12.49746002
C        6.77245000       4.33255999      12.49746002
C        8.20055001       1.86255999      12.49746002
C        4.63555000       3.09755999      12.49746002
C        8.20055001       4.33255999      12.49746002
C        4.63555000       0.62755999      12.49746002
O        5.30616530       6.67104774      14.95515017
H        5.30793707       7.27508293      15.71473132
H        6.27982912       6.31383301      14.94035894
O        7.42216073       5.61144804      15.01773536
H        7.40047775       4.92123243      14.33745247
H        8.26566628       6.19054213      14.88972747
O        7.54042905       8.06405106      15.06739344
H        7.48130525       7.63262056      14.21489241
H        6.63958577       8.55185879      15.11934182
O        5.35460714      14.15165021      14.93974176
H        5.44080117      14.85388551      15.57947733
H        4.43427751      13.73555538      15.00895808
C       10.33955002      15.42743999      17.50254000
C       11.05255000      16.66244001      17.50254000
C       10.33955002      17.89744002      17.50254000
C       11.05255000      19.13243999      17.50254000
C       12.47644999      16.66244001      17.50254000
C        8.91145001      17.89744002      17.50254000
C       12.47644999      19.13243999      17.50254000
C        8.91145001      15.42743999      17.50254000
C       10.33744998      15.44755999      12.49746002
C       11.05045002      16.68256001      12.49746002
C       10.33744998      17.91755998      12.49746002
C       11.05045002      19.15256000      12.49746002
C       12.47854997      16.68256001      12.49746002
C        8.91355000      17.91755998      12.49746002
C       12.47854997      19.15256000      12.49746002
C        8.91355000      15.44755999      12.49746002
O       11.71899958      15.57221307      14.98322625
H       11.84275131      14.71667009      14.53957973
H        9.63636612      17.53700804      15.22191381
O        9.66100353       9.11644704      14.96840516
H        9.62054272       9.89214010      15.54877975
H        8.74237020       8.59198759      15.00943474
O        9.63922085      11.67342917      14.94645784
H        8.48619469      11.06606807      15.08304664
H        9.70010088      12.43376195      15.53844748
O       11.72998779      10.56789176      15.08979295
H       10.51974694      11.17078337      14.97010357
H       11.69016359       9.79957721      14.49444734
C       10.33955002      10.48744002      17.50254000
C       11.05255000      11.72243999      17.50254000
C       10.33955002      12.95744000      17.50254000
C       11.05255000      14.19244002      17.50254000
C       12.47644999      11.72243999      17.50254000
C        8.91145001      12.95744000      17.50254000
C       12.47644999      14.19244002      17.50254000
C        8.91145001      10.48744002      17.50254000
C       10.33744998      10.50755997      12.49746002
C       11.05045002      11.74255999      12.49746002
C       10.33744998      12.97756001      12.49746002
C       11.05045002      14.21255998      12.49746002
C       12.47854997      11.74255999      12.49746002
C        8.91355000      12.97756001      12.49746002
C       12.47854997      14.21255998      12.49746002
C        8.91355000      10.50755997      12.49746002
O       11.70653291      13.10682531      15.03957001
H       11.74262742      12.50299096      14.30238690
H       10.78960296      13.61149626      14.95848049
O       11.68354851       0.67963001      15.11152692
H       11.67876221      39.50437096      14.48881442
H       10.41901632       1.29601386      15.12244862
O        9.62708259      19.04785415      14.93678840
H        8.65965001      18.71324833      15.02840673
H        9.77206409      19.75474551      15.61451597
O       11.84812706      17.99663990      15.06188683
H       11.65469248      17.32955172      14.39889253
H       11.02033553      18.44838802      15.16341090
C       10.33955002       5.54744000      17.50254000
C       11.05255000       6.78244002      17.50254000
C       10.33955002       8.01743998      17.50254000
C       11.05255000       9.25244000      17.50254000
C       12.47644999       6.78244002      17.50254000
C        8.91145001       8.01743998      17.50254000
C       12.47644999       9.25244000      17.50254000
C        8.91145001       5.54744000      17.50254000
C       10.33744998       5.56756001      12.49746002
C       11.05045002       6.80255997      12.49746002
C       10.33744998       8.03755999      12.49746002
C       11.05045002       9.27256001      12.49746002
C       12.47854997       6.80255997      12.49746002
C        8.91355000       8.03755999      12.49746002
C       12.47854997       9.27256001      12.49746002
C        8.91355000       5.56756001      12.49746002
O        9.56988197      16.62312523      14.97628117
H        8.41775850      15.95883335      14.97062953
H       10.50332901      16.20004709      14.90097274
O        9.50804705       1.73071500      15.01608829
H        9.60405838       2.48160753      15.59180645
H        8.31722092       1.11431833      15.03394391
O       11.69886264       3.21989667      15.03097608
H       12.91595935       3.86469246      15.10884944
H       10.75197248       3.66426405      15.08433887
O        9.60453014       4.27010950      15.06918275
H        8.76170486       3.76381994      14.95640764
H       11.64192962       2.43245462      14.45732186
C       10.33955002       0.60744001      17.50254000
C       11.05255000       1.84244001      17.50254000
C       10.33955002       3.07744001      17.50254000
C       11.05255000       4.31244001      17.50254000
C       12.47644999       1.84244001      17.50254000
C        8.91145001       3.07744001      17.50254000
C       12.47644999       4.31244001      17.50254000
C        8.91145001       0.60744001      17.50254000
C       10.33744998       0.62755999      12.49746002
C       11.05045002       1.86255999      12.49746002
C       10.33744998       3.09755999      12.49746002
C       11.05045002       4.33255999      12.49746002
C       12.47854997       1.86255999      12.49746002
C        8.91355000       3.09755999      12.49746002
C       12.47854997       4.33255999      12.49746002
C        8.91355000       0.62755999      12.49746002
O        9.57191173       6.74064579      14.88202810
H       12.62895174       5.99468739      15.02926811
H        9.61976748       7.22430343      15.70283790
O       11.66964390       5.67913642      15.08017909
H       10.36438722       6.21562606      14.78291294
H       11.65199383       4.83411665      14.58565634
O       11.74469124       8.08130232      14.96372508
H       10.79267489       8.44862767      14.90591997
H       11.84003538       7.28608494      14.43920292
O        9.60303496      14.14498210      15.07316289
H        9.65173134      14.90333359      15.65061824
H        8.65655674      13.70539589      15.08307389
C       14.61754998      15.42743999      17.50254000
C       15.33055002      16.66244001      17.50254000
C       14.61754998      17.89744002      17.50254000
C       15.33055002      19.13243999      17.50254000
C       16.75445001      16.66244001      17.50254000
C       13.18945003      17.89744002      17.50254000
C       16.75445001      19.13243999      17.50254000
C       13.18945003      15.42743999      17.50254000
C       14.61545000      15.44755999      12.49746002
C       15.32844998      16.68256001      12.49746002
C       14.61545000      17.91755998      12.49746002
C       15.32844998      19.15256000      12.49746002
C       16.75654999      16.68256001      12.49746002
C       13.19155001      17.91755998      12.49746002
C       16.75654999      19.15256000      12.49746002
C       13.19155001      15.44755999      12.49746002
O       16.01907553      15.49560182      14.97063800
H       16.95575383      15.83421451      14.97080046
H       14.72288517      16.15638301      14.95062684
O       13.92199883       9.16303520      14.92573826
H       13.83084044       9.93175164      15.49482771
H       13.03533426       8.73934404      14.89841443
O       13.86279659      11.64171729      15.00745905
H       12.63745306      10.99463487      14.92009862
H       13.78717555      12.23353523      15.76834679
O       16.00086492      10.52032778      15.15240458
H       14.78687841      11.22485867      15.09324778
H       15.98878806       9.90286593      14.47698451
C       14.61754998      10.48744002      17.50254000
C       15.33055002      11.72243999      17.50254000
C       14.61754998      12.95744000      17.50254000
C       15.33055002      14.19244002      17.50254000
C       16.75445001      11.72243999      17.50254000
C       13.18945003      12.95744000      17.50254000
C       16.75445001      14.19244002      17.50254000
C       13.18945003      10.48744002      17.50254000
C       14.61545000      10.50755997      12.49746002
C       15.32844998      11.74255999      12.49746002
C       14.61545000      12.97756001      12.49746002
C       15.32844998      14.21255998      12.49746002
C       16.75654999      11.74255999      12.49746002
C       13.19155001      12.97756001      12.49746002
C       16.75654999      14.21255998      12.49746002
C       13.19155001      10.50755997      12.49746002
O       16.10233803      12.98104429      14.99555611
H       15.12882959      13.41820527      15.06458600
H       16.11835343      12.31784071      14.34763314
O       15.96016148       0.70424842      15.03626694
H       15.93629717      39.43000589      14.45726416
H       14.65087811       1.29511481      15.01856306
O       13.97169566      19.14382698      15.00038845
H       13.89603012      19.89140347      15.60699585
H       13.08839625      18.68417724      14.99599952
O       16.04866130      17.93063029      15.00691474
H       16.07839717      17.12277180      14.53767047
H       15.15415378      18.33097923      15.08727273
C       14.61754998       5.54744000      17.50254000
C       15.33055002       6.78244002      17.50254000
C       14.61754998       8.01743998      17.50254000
C       15.33055002       9.25244000      17.50254000
C       16.75445001       6.78244002      17.50254000
C       13.18945003       8.01743998      17.50254000
C       16.75445001       9.25244000      17.50254000
C       13.18945003       5.54744000      17.50254000
C       14.61545000       5.56756001      12.49746002
C       15.32844998       6.80255997      12.49746002
C       14.61545000       8.03755999      12.49746002
C       15.32844998       9.27256001      12.49746002
C       16.75654999       6.80255997      12.49746002
C       13.19155001       8.03755999      12.49746002
C       16.75654999       9.27256001      12.49746002
C       13.19155001       5.56756001      12.49746002
O       13.85202093      16.62764266      14.93220544
H       12.62276871      16.03981959      14.99246166
H       13.92850536      17.33073199      15.56790135
O       13.79945849       1.75801004      14.88230915
H       13.90947273       2.65610035      15.23767569
H       12.58605836       1.17259156      15.02850841
O       16.09204094       3.12097639      15.06645481
H       17.27789095       3.74790928      14.86896146
H       15.91872431       2.29343574      14.63211116
O       13.84479181       4.24165119      14.99237737
H       13.92123838       4.89117354      15.70708971
H       15.25734787       3.67403358      15.07870847
C       14.61754998       0.60744001      17.50254000
C       15.33055002       1.84244001      17.50254000
C       14.61754998       3.07744001      17.50254000
C       15.33055002       4.31244001      17.50254000
C       16.75445001       1.84244001      17.50254000
C       13.18945003       3.07744001      17.50254000
C       16.75445001       4.31244001      17.50254000
C       13.18945003       0.60744001      17.50254000
C       14.61545000       0.62755999      12.49746002
C       15.32844998       1.86255999      12.49746002
C       14.61545000       3.09755999      12.49746002
C       15.32844998       4.33255999      12.49746002
C       16.75654999       1.86255999      12.49746002
C       13.19155001       3.09755999      12.49746002
C       16.75654999       4.33255999      12.49746002
C       13.19155001       0.62755999      12.49746002
O       13.81678228       6.71222298      14.93851139
H       13.94333525       7.47365264      15.49817644
H       14.68496213       6.22247271      14.97732606
O       15.95512806       5.57776222      15.04842383
H       16.08647489       5.00052174      14.26726968
H       16.82211268       6.09532883      15.08851990
O       16.06361384       8.07291649      14.99408464
H       15.16193136       8.48586756      14.94315351
H       16.02960134       7.30007299      14.39570744
O       14.00161966      14.08929682      14.99441358
H       13.93200908      14.73823501      15.68959481
H       13.09761764      13.66804783      14.96793489
C        1.78355000      35.18744002      17.50254000
C        2.49655000      36.42244003      17.50254000
C        1.78355000      37.65744000      17.50254000
C        2.49655000      38.89244002      17.50254000
C        3.92045000      36.42244003      17.50254000
C        0.35545000      37.65744000      17.50254000
C        3.92045000      38.89244002      17.50254000
C        0.35545000      35.18744002      17.50254000
C        1.78145000      35.20755997      12.49746002
C        2.49445000      36.44255999      12.49746002
C        1.78145000      37.67756001      12.49746002
C        2.49445000      38.91255997      12.49746002
C        3.92255000      36.44255999      12.49746002
C        0.35755000      37.67756001      12.49746002
C        3.92255000      38.91255997      12.49746002
C        0.35755000      35.20755997      12.49746002
O        3.23919345      35.29979825      15.02239954
H        3.25634476      34.48042835      14.48050533
H        2.28558267      35.65862758      15.01189537
O        1.03514131      28.95590565      14.96278627
H        1.01850694      29.73397035      15.47642434
H        0.10723432      28.51818415      15.01314212
O        1.07221503      31.42893852      14.98422192
H        1.02715438      32.27354965      15.47715629
H        0.17231872      31.02659160      15.01224705
O        3.21452355      30.34929538      14.99637810
H        2.30548641      30.78430941      14.97468166
H        3.17478290      29.77070289      14.25732562
C        1.78355000      30.24744000      17.50254000
C        2.49655000      31.48244001      17.50254000
C        1.78355000      32.71744003      17.50254000
C        2.49655000      33.95244000      17.50254000
C        3.92045000      31.48244001      17.50254000
C        0.35545000      32.71744003      17.50254000
C        3.92045000      33.95244000      17.50254000
C        0.35545000      30.24744000      17.50254000
C        1.78145000      30.26756000      12.49746002
C        2.49445000      31.50255997      12.49746002
C        1.78145000      32.73755999      12.49746002
C        2.49445000      33.97256000      12.49746002
C        3.92255000      31.50255997      12.49746002
C        0.35755000      32.73755999      12.49746002
C        3.92255000      33.97256000      12.49746002
C        0.35755000      30.26756000      12.49746002
O        3.22204531      32.81032129      14.97990772
H        4.14390488      33.20112578      14.99802397
H        1.94665517      33.50984495      14.82519579
O        3.16272257      20.50245169      15.02684488
H        3.20051854      19.65402941      14.54270976
H        1.92045603      21.09267348      14.97399563
O        1.00652448      38.87274124      14.94103589
H        1.17388120      39.49660719      15.67100403
H       34.06733746      38.10553154      15.02256944
O        3.21860034      37.73908378      14.96924403
H        3.38752457      36.99293769      14.45356002
H        1.90481991      38.47181646      14.78462706
C        1.78355000      25.30744003      17.50254000
C        2.49655000      26.54243999      17.50254000
C        1.78355000      27.77744001      17.50254000
C        2.49655000      29.01244003      17.50254000
C        3.92045000      26.54243999      17.50254000
C        0.35545000      27.77744001      17.50254000
C        3.92045000      29.01244003      17.50254000
C        0.35545000      25.30744003      17.50254000
C        1.78145000      25.32755998      12.49746002
C        2.49445000      26.56256000      12.49746002
C        1.78145000      27.79755996      12.49746002
C        2.49445000      29.03255998      12.49746002
C        3.92255000      26.56256000      12.49746002
C        0.35755000      27.79755996      12.49746002
C        3.92255000      29.03255998      12.49746002
C        0.35755000      25.32755998      12.49746002
O        1.11526051      36.35412737      15.00144355
H        0.17583976      35.99048191      15.04102096
H        1.19028883      37.05968666      15.63265889
O        1.01107431      21.49639243      14.95385511
H        1.06577407      22.14020764      15.64187340
H       34.06834125      20.88489499      14.91352475
O        3.23407535      22.90554679      15.00053235
H        4.49049124      23.55487350      14.96907243
H        3.10550748      22.11434389      14.47394386
O        1.07117192      24.01244730      15.01989826
H        1.12802269      24.81377039      15.50343466
H        2.33318999      23.31863929      15.05621949
C        1.78355000      20.36744001      17.50254000
C        2.49655000      21.60244003      17.50254000
C        1.78355000      22.83743999      17.50254000
C        2.49655000      24.07244001      17.50254000
C        3.92045000      21.60244003      17.50254000
C        0.35545000      22.83743999      17.50254000
C        3.92045000      24.07244001      17.50254000
C        0.35545000      20.36744001      17.50254000
C        1.78145000      20.38756001      12.49746002
C        2.49445000      21.62255998      12.49746002
C        1.78145000      22.85756000      12.49746002
C        2.49445000      24.09256002      12.49746002
C        3.92255000      21.62255998      12.49746002
C        0.35755000      22.85756000      12.49746002
C        3.92255000      24.09256002      12.49746002
C        0.35755000      20.38756001      12.49746002
O        1.00332811      26.51469472      15.02736982
H        1.01279178      27.25557083      15.63094879
H        1.94135778      26.15444347      14.95579023