1792
Lattice="34.2239999837844 0.0 0.0 0.0 39.520000003664336 0.0 0.0 0.0 30.00000001317236" Properties=species:S:1:pos:R:3 ipi_comment="Step:      395000  Bead:       0 positions{ase}  cell{ase}" pbc="T T T"
C        1.78355000      15.42743999      17.50254000
C        2.49655000      16.66244001      17.50254000
C        1.78355000      17.89744002      17.50254000
C        2.49655000      19.13243999      17.50254000
C        3.92045000      16.66244001      17.50254000
C        0.35545000      17.89744002      17.50254000
C        3.92045000      19.13243999      17.50254000
C        0.35545000      15.42743999      17.50254000
C        1.78145000      15.44755999      12.49746002
C        2.49445000      16.68256001      12.49746002
C        1.78145000      17.91755998      12.49746002
C        2.49445000      19.15256000      12.49746002
C        3.92255000      16.68256001      12.49746002
C        0.35755000      17.91755998      12.49746002
C        3.92255000      19.15256000      12.49746002
C        0.35755000      15.44755999      12.49746002
O        3.16675525      15.40968858      15.11362840
H        1.71608318      11.44004318      14.34221685
H        2.59222227      23.31611050      14.66011983
O        1.01063186       9.22007315      15.29184865
H       30.43023631      11.33057984      15.28057871
H        6.50999635       2.57136566      14.96503654
O        0.94566151      11.70918339      14.79324218
H       33.15171072      17.17334724      14.68211726
H       26.84942353      12.55103849      14.41925051
O        3.03563470      10.44275104      14.82642001
H        1.87708769      19.78441076      14.49652138
H        4.31536113      13.78935622      15.04119773
C        1.78355000      10.48744002      17.50254000
C        2.49655000      11.72243999      17.50254000
C        1.78355000      12.95744000      17.50254000
C        2.49655000      14.19244002      17.50254000
C        3.92045000      11.72243999      17.50254000
C        0.35545000      12.95744000      17.50254000
C        3.92045000      14.19244002      17.50254000
C        0.35545000      10.48744002      17.50254000
C        1.78145000      10.50755997      12.49746002
C        2.49445000      11.74255999      12.49746002
C        1.78145000      12.97756001      12.49746002
C        2.49445000      14.21255998      12.49746002
C        3.92255000      11.74255999      12.49746002
C        0.35755000      12.97756001      12.49746002
C        3.92255000      14.21255998      12.49746002
C        0.35755000      10.50755997      12.49746002
O        3.24266979      12.92480239      14.87272113
H       33.05197934      38.77942342      14.71593371
H       30.27593786      18.58343069      14.95906552
O        3.20534693       0.53433687      14.72697009
H        1.15677980       5.26922838      14.84104266
H        3.17008204       9.43773496      14.74716869
O        1.15783678      19.19138675      14.96168798
H        0.53304894      24.54988579      15.63485241
H       28.18083771      18.33111242      14.75603435
O        3.18504840      17.84562437      15.11393221
H       11.61124467       9.22938930      14.97611222
H        4.50218512      10.86377534      14.94137238
C        1.78355000       5.54744000      17.50254000
C        2.49655000       6.78244002      17.50254000
C        1.78355000       8.01743998      17.50254000
C        2.49655000       9.25244000      17.50254000
C        3.92045000       6.78244002      17.50254000
C        0.35545000       8.01743998      17.50254000
C        3.92045000       9.25244000      17.50254000
C        0.35545000       5.54744000      17.50254000
C        1.78145000       5.56756001      12.49746002
C        2.49445000       6.80255997      12.49746002
C        1.78145000       8.03755999      12.49746002
C        2.49445000       9.27256001      12.49746002
C        3.92255000       6.80255997      12.49746002
C        0.35755000       8.03755999      12.49746002
C        3.92255000       9.27256001      12.49746002
C        0.35755000       5.56756001      12.49746002
O        0.96059870      16.65041247      14.95788271
H       31.36215657       6.70301185      15.55052512
H       24.84427190      12.62544311      14.40525366
O        1.20674969       1.86307126      14.83396714
H        8.39447319      39.43723044      14.92011739
H        2.91069410       3.44063968      14.75996967
O        3.43087209       2.77349702      15.05055311
H        1.22685296       2.88344475      14.82338715
H       10.79079863      11.08088659      15.15125323
O        1.17906101       4.26647328      14.93420051
H        7.54675657       4.07886482      14.90994446
H        1.91075047       7.16159305      14.81941366
C        1.78355000       0.60744001      17.50254000
C        2.49655000       1.84244001      17.50254000
C        1.78355000       3.07744001      17.50254000
C        2.49655000       4.31244001      17.50254000
C        3.92045000       1.84244001      17.50254000
C        0.35545000       3.07744001      17.50254000
C        3.92045000       4.31244001      17.50254000
C        0.35545000       0.60744001      17.50254000
C        1.78145000       0.62755999      12.49746002
C        2.49445000       1.86255999      12.49746002
C        1.78145000       3.09755999      12.49746002
C        2.49445000       4.33255999      12.49746002
C        3.92255000       1.86255999      12.49746002
C        0.35755000       3.09755999      12.49746002
C        3.92255000       4.33255999      12.49746002
C        0.35755000       0.62755999      12.49746002
O        1.06098743       6.73768749      15.07984792
H        4.68998577       2.51386024      15.02678547
H       26.94698649       3.71760805      15.63184897
O        3.13558577       5.39049480      14.96576065
H        3.07671089       1.93259407      14.61451211
H       26.53679484      13.78590442      15.72104570
O        3.24731209       7.92285182      14.82684063
H        2.87450043      16.36211800      15.17135968
H        5.46072656       8.92516111      14.26002112
O        0.94033466      14.13244773      15.04704288
H        5.75714994      16.64775945      14.07007181
H        7.49467661      26.31916307      14.97876726
C        6.06155000      15.42743999      17.50254000
C        6.77454999      16.66244001      17.50254000
C        6.06155000      17.89744002      17.50254000
C        6.77454999      19.13243999      17.50254000
C        8.19845002      16.66244001      17.50254000
C        4.63345000      17.89744002      17.50254000
C        8.19845002      19.13243999      17.50254000
C        4.63345000      15.42743999      17.50254000
C        6.05945001      15.44755999      12.49746002
C        6.77245000      16.68256001      12.49746002
C        6.05945001      17.91755998      12.49746002
C        6.77245000      19.15256000      12.49746002
C        8.20055001      16.68256001      12.49746002
C        4.63555000      17.91755998      12.49746002
C        8.20055001      19.15256000      12.49746002
C        4.63555000      15.44755999      12.49746002
O        7.59103013      15.46188350      15.02254738
H        4.45960857      28.63470699      15.07524543
H        4.60362035       8.64767787      15.41151520
O        5.32902184       9.24106806      15.14409735
H       13.55409912      39.37728174      15.75462171
H       29.59318507      13.58659382      14.80274439
O        5.22824523      11.52163389      15.11686834
H        2.80779517      10.50920656      15.81563267
H       33.81713222      23.26121273      14.23240061
O        7.46273611      10.56734490      14.88795368
H       10.27805049      29.45222893      14.49556941
H       33.91025635       5.87969876      15.62696247
C        6.06155000      10.48744002      17.50254000
C        6.77454999      11.72243999      17.50254000
C        6.06155000      12.95744000      17.50254000
C        6.77454999      14.19244002      17.50254000
C        8.19845002      11.72243999      17.50254000
C        4.63345000      12.95744000      17.50254000
C        8.19845002      14.19244002      17.50254000
C        4.63345000      10.48744002      17.50254000
C        6.05945001      10.50755997      12.49746002
C        6.77245000      11.74255999      12.49746002
C        6.05945001      12.97756001      12.49746002
C        6.77245000      14.21255998      12.49746002
C        8.20055001      11.74255999      12.49746002
C        4.63555000      12.97756001      12.49746002
C        8.20055001      14.21255998      12.49746002
C        4.63555000      10.50755997      12.49746002
O        7.33522320      13.07802071      14.95913112
H       33.46973117      10.20878790      14.20578790
H       13.09034402      16.07845738      15.11522952
O        7.47240624       0.49605608      14.80358745
H       18.13036625      29.21136644      14.17622424
H        5.45987981       1.40129589      15.86445622
O        5.26412504      19.03649217      15.16698473
H        8.37870101      16.06861273      14.85167251
H       15.18530601      15.73603989      14.93508299
O        7.47509744      17.89374658      14.98017878
H        0.65305297      14.58590793      15.91112662
H        7.28248930      15.14609019      14.16645744
C        6.06155000       5.54744000      17.50254000
C        6.77454999       6.78244002      17.50254000
C        6.06155000       8.01743998      17.50254000
C        6.77454999       9.25244000      17.50254000
C        8.19845002       6.78244002      17.50254000
C        4.63345000       8.01743998      17.50254000
C        8.19845002       9.25244000      17.50254000
C        4.63345000       5.54744000      17.50254000
C        6.05945001       5.56756001      12.49746002
C        6.77245000       6.80255997      12.49746002
C        6.05945001       8.03755999      12.49746002
C        6.77245000       9.27256001      12.49746002
C        8.20055001       6.80255997      12.49746002
C        4.63555000       8.03755999      12.49746002
C        8.20055001       9.27256001      12.49746002
C        4.63555000       5.56756001      12.49746002
O        5.30346219      16.54843150      14.92738095
H        5.70825448      24.09678657      14.38274566
H       33.96204604      26.03176665      14.97758447
O        5.53283938       1.81982557      14.98540083
H        2.96684459      12.15251923      15.30954045
H       10.00373253       3.72875966      14.37494335
O        7.41476139       3.06206821      14.76315386
H        4.00376093      38.21538919      15.03715005
H       30.96651172      37.30628572      14.84108359
O        5.40284917       4.33104125      15.12791040
H        2.91715110       8.27023803      15.71644608
H        7.24177204      12.56747309      15.77073225
C        6.06155000       0.60744001      17.50254000
C        6.77454999       1.84244001      17.50254000
C        6.06155000       3.07744001      17.50254000
C        6.77454999       4.31244001      17.50254000
C        8.19845002       1.84244001      17.50254000
C        4.63345000       3.07744001      17.50254000
C        8.19845002       4.31244001      17.50254000
C        4.63345000       0.60744001      17.50254000
C        6.05945001       0.62755999      12.49746002
C        6.77245000       1.86255999      12.49746002
C        6.05945001       3.09755999      12.49746002
C        6.77245000       4.33255999      12.49746002
C        8.20055001       1.86255999      12.49746002
C        4.63555000       3.09755999      12.49746002
C        8.20055001       4.33255999      12.49746002
C        4.63555000       0.62755999      12.49746002
O        5.39366990       6.74208893      15.02793968
H       13.37267052       7.82125465      14.96429395
H       10.85682619      16.05086430      14.91273147
O        7.57649379       5.38120334      14.87476081
H       16.48628526      19.75099645      14.51276043
H       15.17839676       7.38792388      15.12782052
O        7.33628124       8.08629359      14.87760444
H       10.47778763      18.56556504      15.12137876
H        6.21626827      13.63566323      15.11101451
O        5.29273929      14.12281770      15.27479219
H       17.74539334       9.06066406      15.98532890
H       30.78306501       8.46142083      15.30574509
C       10.33955002      15.42743999      17.50254000
C       11.05255000      16.66244001      17.50254000
C       10.33955002      17.89744002      17.50254000
C       11.05255000      19.13243999      17.50254000
C       12.47644999      16.66244001      17.50254000
C        8.91145001      17.89744002      17.50254000
C       12.47644999      19.13243999      17.50254000
C        8.91145001      15.42743999      17.50254000
C       10.33744998      15.44755999      12.49746002
C       11.05045002      16.68256001      12.49746002
C       10.33744998      17.91755998      12.49746002
C       11.05045002      19.15256000      12.49746002
C       12.47854997      16.68256001      12.49746002
C        8.91355000      17.91755998      12.49746002
C       12.47854997      19.15256000      12.49746002
C        8.91355000      15.44755999      12.49746002
O       11.75200572      15.54091210      15.07029156
H        5.00937518      22.07650296      15.74747887
H       22.48631982      26.12656300      14.19263460
O        9.56430696       9.28547654      14.88201585
H       18.35994186      20.58504398      15.00259920
H        9.86743355       5.79191260      15.03283222
O        9.50028689      11.76926523      15.01999409
H       10.38559871       7.27802741      15.01492110
H       16.94646122      12.40072968      14.83458297
O       11.60174507      10.53431795      15.07243822
H       18.03403704      10.64329932      14.96626204
H       13.19582843      38.86099358      14.41706135
C       10.33955002      10.48744002      17.50254000
C       11.05255000      11.72243999      17.50254000
C       10.33955002      12.95744000      17.50254000
C       11.05255000      14.19244002      17.50254000
C       12.47644999      11.72243999      17.50254000
C        8.91145001      12.95744000      17.50254000
C       12.47644999      14.19244002      17.50254000
C        8.91145001      10.48744002      17.50254000
C       10.33744998      10.50755997      12.49746002
C       11.05045002      11.74255999      12.49746002
C       10.33744998      12.97756001      12.49746002
C       11.05045002      14.21255998      12.49746002
C       12.47854997      11.74255999      12.49746002
C        8.91355000      12.97756001      12.49746002
C       12.47854997      14.21255998      12.49746002
C        8.91355000      10.50755997      12.49746002
O       11.75455937      13.00420368      15.25668190
H        6.90798523       5.88399292      14.46310736
H       14.28862074      22.25517641      15.45873183
O       11.80536310       0.63184211      14.89457935
H        8.29599226       6.01109492      15.12550793
H       33.82330117       2.69333943      14.39717139
O        9.65719169      19.15147451      15.09752203
H       10.12206706      13.74081354      15.56727172
H        6.10836558      18.55010935      15.09337021
O       11.69941569      17.96783229      14.97855543
H        3.32976588       6.25917363      15.25517751
H       11.88640682      19.55356031      14.47633065
C       10.33955002       5.54744000      17.50254000
C       11.05255000       6.78244002      17.50254000
C       10.33955002       8.01743998      17.50254000
C       11.05255000       9.25244000      17.50254000
C       12.47644999       6.78244002      17.50254000
C        8.91145001       8.01743998      17.50254000
C       12.47644999       9.25244000      17.50254000
C        8.91145001       5.54744000      17.50254000
C       10.33744998       5.56756001      12.49746002
C       11.05045002       6.80255997      12.49746002
C       10.33744998       8.03755999      12.49746002
C       11.05045002       9.27256001      12.49746002
C       12.47854997       6.80255997      12.49746002
C        8.91355000       8.03755999      12.49746002
C       12.47854997       9.27256001      12.49746002
C        8.91355000       5.56756001      12.49746002
O        9.68105596      16.48128096      14.99570042
H        7.39166465       9.67233118      14.99331622
H       13.67680870      11.43894663      14.13564676
O        9.58371700       1.83003570      14.80101413
H       10.54371415       2.19615659      14.74359935
H       13.91530034      34.98662723      14.91514477
O       11.75681669       3.07660177      14.94495550
H       11.81729496      14.75739907      14.53386671
H        9.89014262       3.76670969      15.80357638
O        9.57307409       4.24709049      15.02989510
H        6.60825236       7.52211758      15.14392579
H       16.19177652       3.38351987      14.03830642
C       10.33955002       0.60744001      17.50254000
C       11.05255000       1.84244001      17.50254000
C       10.33955002       3.07744001      17.50254000
C       11.05255000       4.31244001      17.50254000
C       12.47644999       1.84244001      17.50254000
C        8.91145001       3.07744001      17.50254000
C       12.47644999       4.31244001      17.50254000
C        8.91145001       0.60744001      17.50254000
C       10.33744998       0.62755999      12.49746002
C       11.05045002       1.86255999      12.49746002
C       10.33744998       3.09755999      12.49746002
C       11.05045002       4.33255999      12.49746002
C       12.47854997       1.86255999      12.49746002
C        8.91355000       3.09755999      12.49746002
C       12.47854997       4.33255999      12.49746002
C        8.91355000       0.62755999      12.49746002
O        9.51167691       6.78370884      15.05522846
H        3.52541475      15.21625185      14.20465240
H        4.80533826       0.13375086      14.64168309
O       11.73284583       5.57290143      15.01042034
H        5.11782183       5.94416447      15.64870232
H        9.49393973      12.59937192      14.53030719
O       11.67220058       8.12290102      14.89797760
H        8.08562592      13.69251274      15.20465528
H       21.80874651      13.40044713      14.83248488
O        9.47574028      14.15356184      14.95969914
H        8.48666714      11.39609961      14.89698803
H       11.40742627      12.73134935      14.39130351
C       14.61754998      15.42743999      17.50254000
C       15.33055002      16.66244001      17.50254000
C       14.61754998      17.89744002      17.50254000
C       15.33055002      19.13243999      17.50254000
C       16.75445001      16.66244001      17.50254000
C       13.18945003      17.89744002      17.50254000
C       16.75445001      19.13243999      17.50254000
C       13.18945003      15.42743999      17.50254000
C       14.61545000      15.44755999      12.49746002
C       15.32844998      16.68256001      12.49746002
C       14.61545000      17.91755998      12.49746002
C       15.32844998      19.15256000      12.49746002
C       16.75654999      16.68256001      12.49746002
C       13.19155001      17.91755998      12.49746002
C       16.75654999      19.15256000      12.49746002
C       13.19155001      15.44755999      12.49746002
O       16.09715804      15.34830513      14.78815053
H       17.75187196      13.73234189      15.78210182
H       11.29889271      25.05377274      15.72245394
O       13.75945953       9.30705639      14.86022687
H       14.55831286       4.86285269      14.75096944
H       19.67470962      10.11520348      15.46610685
O       13.87364398      11.73637739      14.99936089
H        8.45333764      18.10012113      15.08784689
H       32.17761334       8.16378221      14.82620417
O       15.80701095      10.45414424      15.07596073
H       13.94191283      13.16702682      14.90666899
H       16.65480936       5.84754798      14.63095318
C       14.61754998      10.48744002      17.50254000
C       15.33055002      11.72243999      17.50254000
C       14.61754998      12.95744000      17.50254000
C       15.33055002      14.19244002      17.50254000
C       16.75445001      11.72243999      17.50254000
C       13.18945003      12.95744000      17.50254000
C       16.75445001      14.19244002      17.50254000
C       13.18945003      10.48744002      17.50254000
C       14.61545000      10.50755997      12.49746002
C       15.32844998      11.74255999      12.49746002
C       14.61545000      12.97756001      12.49746002
C       15.32844998      14.21255998      12.49746002
C       16.75654999      11.74255999      12.49746002
C       13.19155001      12.97756001      12.49746002
C       16.75654999      14.21255998      12.49746002
C       13.19155001      10.50755997      12.49746002
O       16.16968248      12.96759420      14.98438372
H       12.45516273      13.47247980      14.89394899
H       22.41098136       9.65935657      15.61235897
O       16.13759328       0.72550058      14.91852261
H       23.20664796       3.92596557      15.12730301
H       13.95979673       6.51921347      14.32095404
O       13.85578335      18.92088890      14.89001360
H       16.23059163      14.28184838      14.83964783
H       21.69382025      23.34729019      14.93415696
O       16.06592125      18.03544593      14.86782169
H       19.95427865      20.35560467      15.70373714
H        9.90620018      16.79173913      15.90041185
C       14.61754998       5.54744000      17.50254000
C       15.33055002       6.78244002      17.50254000
C       14.61754998       8.01743998      17.50254000
C       15.33055002       9.25244000      17.50254000
C       16.75445001       6.78244002      17.50254000
C       13.18945003       8.01743998      17.50254000
C       16.75445001       9.25244000      17.50254000
C       13.18945003       5.54744000      17.50254000
C       14.61545000       5.56756001      12.49746002
C       15.32844998       6.80255997      12.49746002
C       14.61545000       8.03755999      12.49746002
C       15.32844998       9.27256001      12.49746002
C       16.75654999       6.80255997      12.49746002
C       13.19155001       8.03755999      12.49746002
C       16.75654999       9.27256001      12.49746002
C       13.19155001       5.56756001      12.49746002
O       13.97537343      16.46966353      15.20347494
H       18.87279828      23.72567992      15.61914914
H       20.20070706      16.66932373      14.96723938
O       13.87611153       1.77677844      15.01592117
H       13.72722837       2.56823174      15.42365445
H        8.33602591       2.49007481      14.90790314
O       16.11421641       3.10335330      14.93925136
H        1.98449397      29.60583199      14.67564320
H       12.17559950       6.32326640      15.45678940
O       13.87619204       4.31457184      15.20348027
H       15.26464962       1.30258260      15.04542628
H       17.41695632       3.84085408      15.06382242
C       14.61754998       0.60744001      17.50254000
C       15.33055002       1.84244001      17.50254000
C       14.61754998       3.07744001      17.50254000
C       15.33055002       4.31244001      17.50254000
C       16.75445001       1.84244001      17.50254000
C       13.18945003       3.07744001      17.50254000
C       16.75445001       4.31244001      17.50254000
C       13.18945003       0.60744001      17.50254000
C       14.61545000       0.62755999      12.49746002
C       15.32844998       1.86255999      12.49746002
C       14.61545000       3.09755999      12.49746002
C       15.32844998       4.33255999      12.49746002
C       16.75654999       1.86255999      12.49746002
C       13.19155001       3.09755999      12.49746002
C       16.75654999       4.33255999      12.49746002
C       13.19155001       0.62755999      12.49746002
O       13.79979687       6.95942605      15.16654431
H       14.50122529      36.85375957      15.20136897
H       18.37524498       2.40536366      14.29132254
O       15.83859654       5.45456331      14.96237464
H       10.20090648      39.21460647      15.63822161
H       12.93792639       9.84233889      14.74703159
O       15.94638472       8.04832371      15.01577184
H       22.42124291      17.90594126      14.75404579
H       25.32214298      20.84155222      15.04223464
O       13.91808524      14.20978391      15.06099099
H        9.65573726      15.15826787      15.14190495
H       23.88169943       8.54539359      14.68046246
C        1.78355000      35.18744002      17.50254000
C        2.49655000      36.42244003      17.50254000
C        1.78355000      37.65744000      17.50254000
C        2.49655000      38.89244002      17.50254000
C        3.92045000      36.42244003      17.50254000
C        0.35545000      37.65744000      17.50254000
C        3.92045000      38.89244002      17.50254000
C        0.35545000      35.18744002      17.50254000
C        1.78145000      35.20755997      12.49746002
C        2.49445000      36.44255999      12.49746002
C        1.78145000      37.67756001      12.49746002
C        2.49445000      38.91255997      12.49746002
C        3.92255000      36.44255999      12.49746002
C        0.35755000      37.67756001      12.49746002
C        3.92255000      38.91255997      12.49746002
C        0.35755000      35.20755997      12.49746002
O        3.13060545      35.44645087      15.10451943
H        6.08528838      37.15978064      15.19747503
H       29.35714343      34.88923313      14.50241800
O        1.13332122      29.02899479      14.87413230
H       25.96142315      31.74581330      15.54732699
H        0.01710303      35.54366135      14.90253375
O        1.02245211      31.65771635      14.91703205
H       16.17063009      34.63345139      14.49580568
H       24.80237807      34.97701796      14.23298513
O        3.24825822      30.33069022      14.99694101
H       30.99944211      29.73588803      14.81606261
H       21.85563301      20.89786455      14.99575563
C        1.78355000      30.24744000      17.50254000
C        2.49655000      31.48244001      17.50254000
C        1.78355000      32.71744003      17.50254000
C        2.49655000      33.95244000      17.50254000
C        3.92045000      31.48244001      17.50254000
C        0.35545000      32.71744003      17.50254000
C        3.92045000      33.95244000      17.50254000
C        0.35545000      30.24744000      17.50254000
C        1.78145000      30.26756000      12.49746002
C        2.49445000      31.50255997      12.49746002
C        1.78145000      32.73755999      12.49746002
C        2.49445000      33.97256000      12.49746002
C        3.92255000      31.50255997      12.49746002
C        0.35755000      32.73755999      12.49746002
C        3.92255000      33.97256000      12.49746002
C        0.35755000      30.26756000      12.49746002
O        3.23525199      32.74624840      14.89883956
H        9.76881534      24.08655133      15.87418522
H        8.59015910      31.03005652      14.97916004
O        3.20814091      20.36291964      14.92184454
H       28.32970739      24.94884569      14.31201863
H       34.20148880      13.76351153      14.73609154
O        1.05157527      39.00799942      14.87589260
H       31.83585692       5.02437670      15.11283619
H       30.72358840      38.77948309      15.92081290
O        3.11711645      37.66530482      15.17570873
H       11.65076160      38.80506321      14.92773066
H       32.07922055       9.89339995      15.11225366
C        1.78355000      25.30744003      17.50254000
C        2.49655000      26.54243999      17.50254000
C        1.78355000      27.77744001      17.50254000
C        2.49655000      29.01244003      17.50254000
C        3.92045000      26.54243999      17.50254000
C        0.35545000      27.77744001      17.50254000
C        3.92045000      29.01244003      17.50254000
C        0.35545000      25.30744003      17.50254000
C        1.78145000      25.32755998      12.49746002
C        2.49445000      26.56256000      12.49746002
C        1.78145000      27.79755996      12.49746002
C        2.49445000      29.03255998      12.49746002
C        3.92255000      26.56256000      12.49746002
C        0.35755000      27.79755996      12.49746002
C        3.92255000      29.03255998      12.49746002
C        0.35755000      25.32755998      12.49746002
O        0.99215573      36.46928457      14.83550827
H        3.26189887      36.40852642      15.09108431
H        6.81963982      29.97117537      15.51115879
O        1.15273388      21.79298902      14.98700438
H        4.69095596      12.25403992      14.96014192
H       12.25707325      11.21062139      14.91761166
O        3.31638766      22.81085845      14.97289628
H       14.65328134      20.85413242      14.96552157
H        5.42769543      15.19830081      15.14687846
O        1.00748482      24.17235891      14.87759263
H        4.31227237      27.00590788      15.23191547
H       25.37126966      25.79425872      15.07382986
C        1.78355000      20.36744001      17.50254000
C        2.49655000      21.60244003      17.50254000
C        1.78355000      22.83743999      17.50254000
C        2.49655000      24.07244001      17.50254000
C        3.92045000      21.60244003      17.50254000
C        0.35545000      22.83743999      17.50254000
C        3.92045000      24.07244001      17.50254000
C        0.35545000      20.36744001      17.50254000
C        1.78145000      20.38756001      12.49746002
C        2.49445000      21.62255998      12.49746002
C        1.78145000      22.85756000      12.49746002
C        2.49445000      24.09256002      12.49746002
C        3.92255000      21.62255998      12.49746002
C        0.35755000      22.85756000      12.49746002
C        3.92255000      24.09256002      12.49746002
C        0.35755000      20.38756001      12.49746002
O        0.82836366      26.68153859      15.16010035
H       32.24531674       0.69996110      15.58486570
H        7.49194171      21.92860874      14.39651608