1408
Lattice="34.2239999837844 0.0 0.0 0.0 39.520000003664336 0.0 0.0 0.0 30.00000001317236" Properties=species:S:1:pos:R:3 ipi_comment="Step:      313000  Bead:       0 positions{ase}  cell{ase}" pbc="T T T"
C        0.00000000       0.00000000      12.50000001
C        7.84300000       8.64500002      12.50000001
C        0.00000000       7.41000000      12.50000001
C        7.84300000       6.17499999      12.50000001
C        6.41699997       8.64500002      12.50000001
C        5.70399999       7.41000000      12.50000001
C        6.41699997       6.17499999      12.50000001
C        5.70399999       0.00000000      12.50000001
C        4.27800000       0.00000000      12.50000001
C        3.56500000       8.64500002      12.50000001
C        4.27800000       7.41000000      12.50000001
C        3.56500000       6.17499999      12.50000001
C        2.13900000       8.64500002      12.50000001
C        1.42600000       7.41000000      12.50000001
C        2.13900000       6.17499999      12.50000001
C        1.42600000       0.00000000      12.50000001
C        0.00000000       4.94000000      12.50000001
C        7.84300000       3.70500000      12.50000001
C        0.00000000       2.47000000      12.50000001
C        7.84300000       1.23500000      12.50000001
C        6.41699997       3.70500000      12.50000001
C        5.70399999       2.47000000      12.50000001
C        6.41699997       1.23500000      12.50000001
C        5.70399999       4.94000000      12.50000001
C        4.27800000       4.94000000      12.50000001
C        3.56500000       3.70500000      12.50000001
C        4.27800000       2.47000000      12.50000001
C        3.56500000       1.23500000      12.50000001
C        2.13900000       3.70500000      12.50000001
C        1.42600000       2.47000000      12.50000001
C        2.13900000       1.23500000      12.50000001
C        1.42600000       4.94000000      12.50000001
C        0.71000000       8.65024401      17.50000000
C        8.55300002       7.41524399      17.50000000
C        0.71000000       6.18024403      17.50000000
C        8.55300002       4.94524400      17.50000000
C        7.12700000       7.41524399      17.50000000
C        6.41400002       6.18024403      17.50000000
C        7.12700000       4.94524400      17.50000000
C        6.41400002       8.65024401      17.50000000
C        4.98800000       8.65024401      17.50000000
C        4.27500000       7.41524399      17.50000000
C        4.98800000       6.18024403      17.50000000
C        4.27500000       4.94524400      17.50000000
C        2.84900000       7.41524399      17.50000000
C        2.13600000       6.18024403      17.50000000
C        2.84900000       4.94524400      17.50000000
C        2.13600000       8.65024401      17.50000000
C        0.71000000       3.71024400      17.50000000
C        8.55300002       2.47524400      17.50000000
C        0.71000000       1.24024400      17.50000000
C        8.55300002       0.00524400      17.50000000
C        7.12700000       2.47524400      17.50000000
C        6.41400002       1.24024400      17.50000000
C        7.12700000       0.00524400      17.50000000
C        6.41400002       3.71024400      17.50000000
C        4.98800000       3.71024400      17.50000000
C        4.27500000       2.47524400      17.50000000
C        4.98800000       1.24024400      17.50000000
C        4.27500000       0.00524400      17.50000000
C        2.84900000       2.47524400      17.50000000
C        2.13600000       1.24024400      17.50000000
C        2.84900000       0.00524400      17.50000000
C        2.13600000       3.71024400      17.50000000
O       30.78154207      24.82542710      15.05437415
H       30.21985440      24.81561707      14.32946563
H       31.27823943      25.76066185      15.02245103
O        3.85381057      22.03569852      14.95983018
H        3.15069259      21.39055946      14.62902929
H        7.43703942       1.45076647      15.70081218
O        7.03772048       4.06004200      15.07577651
H        7.47064114       4.63146572      14.38339689
H        6.13903984       4.13037908      14.69076136
O       10.66838100      20.00322355      14.86642090
H       11.23805104      20.76297740      14.71551912
H        9.90830735      20.37456409      15.37063854
O       28.97141861       2.87346898      14.96941990
H       28.48148492       3.39874390      15.51767480
H       28.61336032       2.04734896      15.17881366
O       19.91369155      10.96702073      14.93563888
H       19.61975463      11.93852425      14.89889720
H       19.22464371      10.52505653      15.50063899
O       11.28207680      14.14867738      14.94380383
H       10.98295018      15.04949333      14.85096795
H        6.97133463      37.09225282      14.38828298
O       29.84293349      21.13511794      14.84249437
H       29.44671896      20.49394144      15.46060549
H       29.52743777      22.02427054      15.06889949
C        0.00000000       9.87999999      12.50000001
C        7.84300000      18.52500001      12.50000001
C        0.00000000      17.28999999      12.50000001
C        7.84300000      16.05500003      12.50000001
C        6.41699997      18.52500001      12.50000001
C        5.70399999      17.28999999      12.50000001
C        6.41699997      16.05500003      12.50000001
C        5.70399999       9.87999999      12.50000001
C        4.27800000       9.87999999      12.50000001
C        3.56500000      18.52500001      12.50000001
C        4.27800000      17.28999999      12.50000001
C        3.56500000      16.05500003      12.50000001
C        2.13900000      18.52500001      12.50000001
C        1.42600000      17.28999999      12.50000001
C        2.13900000      16.05500003      12.50000001
C        1.42600000       9.87999999      12.50000001
C        0.00000000      14.82000001      12.50000001
C        7.84300000      13.58499999      12.50000001
C        0.00000000      12.35000002      12.50000001
C        7.84300000      11.11500001      12.50000001
C        6.41699997      13.58499999      12.50000001
C        5.70399999      12.35000002      12.50000001
C        6.41699997      11.11500001      12.50000001
C        5.70399999      14.82000001      12.50000001
C        4.27800000      14.82000001      12.50000001
C        3.56500000      13.58499999      12.50000001
C        4.27800000      12.35000002      12.50000001
C        3.56500000      11.11500001      12.50000001
C        2.13900000      13.58499999      12.50000001
C        1.42600000      12.35000002      12.50000001
C        2.13900000      11.11500001      12.50000001
C        1.42600000      14.82000001      12.50000001
C        0.71000000      18.53024400      17.50000000
C        8.55300002      17.29524398      17.50000000
C        0.71000000      16.06024401      17.50000000
C        8.55300002      14.82524400      17.50000000
C        7.12700000      17.29524398      17.50000000
C        6.41400002      16.06024401      17.50000000
C        7.12700000      14.82524400      17.50000000
C        6.41400002      18.53024400      17.50000000
C        4.98800000      18.53024400      17.50000000
C        4.27500000      17.29524398      17.50000000
C        4.98800000      16.06024401      17.50000000
C        4.27500000      14.82524400      17.50000000
C        2.84900000      17.29524398      17.50000000
C        2.13600000      16.06024401      17.50000000
C        2.84900000      14.82524400      17.50000000
C        2.13600000      18.53024400      17.50000000
C        0.71000000      13.59024398      17.50000000
C        8.55300002      12.35524401      17.50000000
C        0.71000000      11.12024399      17.50000000
C        8.55300002       9.88524398      17.50000000
C        7.12700000      12.35524401      17.50000000
C        6.41400002      11.12024399      17.50000000
C        7.12700000       9.88524398      17.50000000
C        6.41400002      13.59024398      17.50000000
C        4.98800000      13.59024398      17.50000000
C        4.27500000      12.35524401      17.50000000
C        4.98800000      11.12024399      17.50000000
C        4.27500000       9.88524398      17.50000000
C        2.84900000      12.35524401      17.50000000
C        2.13600000      11.12024399      17.50000000
C        2.84900000       9.88524398      17.50000000
C        2.13600000      13.59024398      17.50000000
O       11.57530800       8.25932354      15.07424766
H       11.53216004       9.14647436      14.74687139
H       12.45364749       7.88176792      14.87144714
O       32.51252697      29.34668285      15.17759485
H       31.57994424      29.67864959      15.07894257
H        4.46493648      21.35784527      15.27570272
O        3.47561990      24.89386024      14.95024358
H        2.93282298      25.24002894      15.70236338
H        3.80741997      24.03872106      15.25281970
O        4.77526456      16.95430279      14.83316235
H        4.68325023      16.10032755      14.48295545
H        3.97467912      17.18273660      15.32397876
O        5.84511647      19.79635779      15.01884023
H        6.03485373      18.80331084      14.97653643
H        6.61000264      20.36141758      14.90267087
O       16.57182846      18.70858804      15.03190717
H       15.78829041      19.33143861      15.14133161
H       16.02235409      17.86778371      14.88871900
O        0.23788521      25.15057299      15.05775820
H        0.11304977      24.18474682      15.09213235
H       11.94775013      14.26022136      15.60793320
O       33.86517361      10.50468450      14.97480330
H        0.54750596      10.17969622      14.98635776
H       33.20885679      10.04640272      15.62092930
C        0.00000000      19.75999998      12.50000001
C        7.84300000      28.40500000      12.50000001
C        0.00000000      27.16999998      12.50000001
C        7.84300000      25.93500001      12.50000001
C        6.41699997      28.40500000      12.50000001
C        5.70399999      27.16999998      12.50000001
C        6.41699997      25.93500001      12.50000001
C        5.70399999      19.75999998      12.50000001
C        4.27800000      19.75999998      12.50000001
C        3.56500000      28.40500000      12.50000001
C        4.27800000      27.16999998      12.50000001
C        3.56500000      25.93500001      12.50000001
C        2.13900000      28.40500000      12.50000001
C        1.42600000      27.16999998      12.50000001
C        2.13900000      25.93500001      12.50000001
C        1.42600000      19.75999998      12.50000001
C        0.00000000      24.70000000      12.50000001
C        7.84300000      23.46499998      12.50000001
C        0.00000000      22.23000001      12.50000001
C        7.84300000      20.99499999      12.50000001
C        6.41699997      23.46499998      12.50000001
C        5.70399999      22.23000001      12.50000001
C        6.41699997      20.99499999      12.50000001
C        5.70399999      24.70000000      12.50000001
C        4.27800000      24.70000000      12.50000001
C        3.56500000      23.46499998      12.50000001
C        4.27800000      22.23000001      12.50000001
C        3.56500000      20.99499999      12.50000001
C        2.13900000      23.46499998      12.50000001
C        1.42600000      22.23000001      12.50000001
C        2.13900000      20.99499999      12.50000001
C        1.42600000      24.70000000      12.50000001
C        0.71000000      28.41024399      17.50000000
C        8.55300002      27.17524402      17.50000000
C        0.71000000      25.94024400      17.50000000
C        8.55300002      24.70524398      17.50000000
C        7.12700000      27.17524402      17.50000000
C        6.41400002      25.94024400      17.50000000
C        7.12700000      24.70524398      17.50000000
C        6.41400002      28.41024399      17.50000000
C        4.98800000      28.41024399      17.50000000
C        4.27500000      27.17524402      17.50000000
C        4.98800000      25.94024400      17.50000000
C        4.27500000      24.70524398      17.50000000
C        2.84900000      27.17524402      17.50000000
C        2.13600000      25.94024400      17.50000000
C        2.84900000      24.70524398      17.50000000
C        2.13600000      28.41024399      17.50000000
C        0.71000000      23.47024402      17.50000000
C        8.55300002      22.23524400      17.50000000
C        0.71000000      21.00024398      17.50000000
C        8.55300002      19.76524402      17.50000000
C        7.12700000      22.23524400      17.50000000
C        6.41400002      21.00024398      17.50000000
C        7.12700000      19.76524402      17.50000000
C        6.41400002      23.47024402      17.50000000
C        4.98800000      23.47024402      17.50000000
C        4.27500000      22.23524400      17.50000000
C        4.98800000      21.00024398      17.50000000
C        4.27500000      19.76524402      17.50000000
C        2.84900000      22.23524400      17.50000000
C        2.13600000      21.00024398      17.50000000
C        2.84900000      19.76524402      17.50000000
C        2.13600000      23.47024402      17.50000000
O        9.02861747      25.24928329      15.05978562
H        8.52841515      26.07346642      14.79203223
H        8.34925353      24.54258968      14.91922359
O       15.60362573      33.34596294      14.99493128
H       14.88208393      32.82401844      14.62806135
H       32.97404408      30.20560068      15.15103454
O        7.99765208       8.66498419      15.10751918
H        8.41829626       9.37333981      14.62605579
H        8.42466130       7.73952075      15.07082458
O       16.67606829      11.07281302      14.83897313
H       15.68048994      10.75444736      14.85862179
H       16.84075187      11.35287746      15.76163015
O       15.73529712      15.98060929      14.89086415
H       16.51766586      15.34763206      15.14351700
H       15.07602911      15.49940457      14.39860127
O       14.92515409      30.64085032      15.00529289
H       14.05781948      30.50857051      15.53719511
H       14.99849944      29.75140845      14.60655628
O       25.45568698      35.72964424      14.80698209
H       25.71145780      36.35592161      15.47398958
H        1.18269238      25.00695887      14.57417353
O        8.11660256      27.71702162      14.92644521
H        7.22412055      27.67778607      15.18657693
H        8.44070996      28.58860863      15.01469166
C        0.00000000      29.64000002      12.50000001
C        7.84300000      38.28499999      12.50000001
C        0.00000000      37.05000002      12.50000001
C        7.84300000      35.81500000      12.50000001
C        6.41699997      38.28499999      12.50000001
C        5.70399999      37.05000002      12.50000001
C        6.41699997      35.81500000      12.50000001
C        5.70399999      29.64000002      12.50000001
C        4.27800000      29.64000002      12.50000001
C        3.56500000      38.28499999      12.50000001
C        4.27800000      37.05000002      12.50000001
C        3.56500000      35.81500000      12.50000001
C        2.13900000      38.28499999      12.50000001
C        1.42600000      37.05000002      12.50000001
C        2.13900000      35.81500000      12.50000001
C        1.42600000      29.64000002      12.50000001
C        0.00000000      34.57999998      12.50000001
C        7.84300000      33.34500002      12.50000001
C        0.00000000      32.11000000      12.50000001
C        7.84300000      30.87499998      12.50000001
C        6.41699997      33.34500002      12.50000001
C        5.70399999      32.11000000      12.50000001
C        6.41699997      30.87499998      12.50000001
C        5.70399999      34.57999998      12.50000001
C        4.27800000      34.57999998      12.50000001
C        3.56500000      33.34500002      12.50000001
C        4.27800000      32.11000000      12.50000001
C        3.56500000      30.87499998      12.50000001
C        2.13900000      33.34500002      12.50000001
C        1.42600000      32.11000000      12.50000001
C        2.13900000      30.87499998      12.50000001
C        1.42600000      34.57999998      12.50000001
C        0.71000000      38.29024403      17.50000000
C        8.55300002      37.05524401      17.50000000
C        0.71000000      35.82024399      17.50000000
C        8.55300002      34.58524402      17.50000000
C        7.12700000      37.05524401      17.50000000
C        6.41400002      35.82024399      17.50000000
C        7.12700000      34.58524402      17.50000000
C        6.41400002      38.29024403      17.50000000
C        4.98800000      38.29024403      17.50000000
C        4.27500000      37.05524401      17.50000000
C        4.98800000      35.82024399      17.50000000
C        4.27500000      34.58524402      17.50000000
C        2.84900000      37.05524401      17.50000000
C        2.13600000      35.82024399      17.50000000
C        2.84900000      34.58524402      17.50000000
C        2.13600000      38.29024403      17.50000000
C        0.71000000      33.35024401      17.50000000
C        8.55300002      32.11524399      17.50000000
C        0.71000000      30.88024402      17.50000000
C        8.55300002      29.64524400      17.50000000
C        7.12700000      32.11524399      17.50000000
C        6.41400002      30.88024402      17.50000000
C        7.12700000      29.64524400      17.50000000
C        6.41400002      33.35024401      17.50000000
C        4.98800000      33.35024401      17.50000000
C        4.27500000      32.11524399      17.50000000
C        4.98800000      30.88024402      17.50000000
C        4.27500000      29.64524400      17.50000000
C        2.84900000      32.11524399      17.50000000
C        2.13600000      30.88024402      17.50000000
C        2.84900000      29.64524400      17.50000000
C        2.13600000      33.35024401      17.50000000
O        1.23858920      20.80097132      14.81841414
H        0.74141363      19.98950526      14.92187171
H        0.58703104      21.29886631      14.24409618
O        7.66549319       0.96291331      14.93431352
H        8.51761027       1.33063105      14.68206906
H       15.33553078      34.27582641      15.02523478
O        5.12705469       6.90743529      15.22883703
H        5.40267704       6.32782383      14.46766405
H        5.83996575       7.52579480      15.54939681
O        3.22477651      38.29590978      14.92141773
H        2.51500649      38.41974216      15.48506282
H        3.96098109      37.92326414      15.49154827
O        3.11609509       1.72225112      15.17204083
H        2.43877246       1.08245380      15.37830327
H        3.88689272       1.10036057      15.31882521
O        4.32656380       4.31665322      14.98866687
H        3.78648822       4.70743773      15.69282201
H        4.03344346       3.37889030      15.07689260
O        6.74694902      37.51772900      15.19661385
H        6.92382502      38.49958195      15.19679026
H       24.39851242      35.92974984      14.65779125
O        2.84910905      33.22004933      14.90450828
H        3.53201490      33.38005891      15.58674629
H        2.79955355      32.20193895      15.00348696
C        8.55599998       0.00000000      12.50000001
C       16.39899998       8.64500002      12.50000001
C        8.55599998       7.41000000      12.50000001
C       16.39899998       6.17499999      12.50000001
C       14.97300001       8.64500002      12.50000001
C       14.26000002       7.41000000      12.50000001
C       14.97300001       6.17499999      12.50000001
C       14.26000002       0.00000000      12.50000001
C       12.83400000       0.00000000      12.50000001
C       12.12100002       8.64500002      12.50000001
C       12.83400000       7.41000000      12.50000001
C       12.12100002       6.17499999      12.50000001
C       10.69499999       8.64500002      12.50000001
C        9.98200001       7.41000000      12.50000001
C       10.69499999       6.17499999      12.50000001
C        9.98200001       0.00000000      12.50000001
C        8.55599998       4.94000000      12.50000001
C       16.39899998       3.70500000      12.50000001
C        8.55599998       2.47000000      12.50000001
C       16.39899998       1.23500000      12.50000001
C       14.97300001       3.70500000      12.50000001
C       14.26000002       2.47000000      12.50000001
C       14.97300001       1.23500000      12.50000001
C       14.26000002       4.94000000      12.50000001
C       12.83400000       4.94000000      12.50000001
C       12.12100002       3.70500000      12.50000001
C       12.83400000       2.47000000      12.50000001
C       12.12100002       1.23500000      12.50000001
C       10.69499999       3.70500000      12.50000001
C        9.98200001       2.47000000      12.50000001
C       10.69499999       1.23500000      12.50000001
C        9.98200001       4.94000000      12.50000001
C        9.26600001       8.65024401      17.50000000
C       17.10900001       7.41524399      17.50000000
C        9.26600001       6.18024403      17.50000000
C       17.10900001       4.94524400      17.50000000
C       15.68299998       7.41524399      17.50000000
C       14.97000000       6.18024403      17.50000000
C       15.68299998       4.94524400      17.50000000
C       14.97000000       8.65024401      17.50000000
C       13.54399997       8.65024401      17.50000000
C       12.83099999       7.41524399      17.50000000
C       13.54399997       6.18024403      17.50000000
C       12.83099999       4.94524400      17.50000000
C       11.40500002       7.41524399      17.50000000
C       10.69199998       6.18024403      17.50000000
C       11.40500002       4.94524400      17.50000000
C       10.69199998       8.65024401      17.50000000
C        9.26600001       3.71024400      17.50000000
C       17.10900001       2.47524400      17.50000000
C        9.26600001       1.24024400      17.50000000
C       17.10900001       0.00524400      17.50000000
C       15.68299998       2.47524400      17.50000000
C       14.97000000       1.24024400      17.50000000
C       15.68299998       0.00524400      17.50000000
C       14.97000000       3.71024400      17.50000000
C       13.54399997       3.71024400      17.50000000
C       12.83099999       2.47524400      17.50000000
C       13.54399997       1.24024400      17.50000000
C       12.83099999       0.00524400      17.50000000
C       11.40500002       2.47524400      17.50000000
C       10.69199998       1.24024400      17.50000000
C       11.40500002       0.00524400      17.50000000
C       10.69199998       3.71024400      17.50000000
O       32.09519682       1.92781489      14.84305669
H       32.72755104       2.61148807      14.96210516
H       31.28589747       2.46884347      14.77576214
O       20.71692546      26.33439912      15.11004411
H       20.16651060      26.50299732      14.27240383
H       14.81251043       6.59549257      14.65547030
O       31.18863008      15.44523686      14.89226531
H       31.89973786      16.08110831      15.08839681
H       30.54088790      15.83497964      14.34811662
O        1.56145965      13.90828580      15.01430383
H        2.40674216      13.63121482      14.67915641
H        0.98861573      13.13952486      14.95447887
O       24.54009060      26.79216988      14.97271212
H       23.77731332      27.34875283      15.22444474
H       25.29736362      27.49410293      14.83538333
O        9.44225814       6.41111898      14.89643214
H        9.73221029       5.92691516      15.64940338
H       10.31192599       6.87394709      14.85528735
O       22.13746479      23.31008486      15.00383986
H       22.81787307      24.01260392      14.72805370
H       31.29996257       7.93326809      14.64123938
O       14.26059993      21.96262050      15.15271827
H       14.40927002      21.02036311      15.17027980
H       14.73121961      22.30792549      14.33192763
C        8.55599998       9.87999999      12.50000001
C       16.39899998      18.52500001      12.50000001
C        8.55599998      17.28999999      12.50000001
C       16.39899998      16.05500003      12.50000001
C       14.97300001      18.52500001      12.50000001
C       14.26000002      17.28999999      12.50000001
C       14.97300001      16.05500003      12.50000001
C       14.26000002       9.87999999      12.50000001
C       12.83400000       9.87999999      12.50000001
C       12.12100002      18.52500001      12.50000001
C       12.83400000      17.28999999      12.50000001
C       12.12100002      16.05500003      12.50000001
C       10.69499999      18.52500001      12.50000001
C        9.98200001      17.28999999      12.50000001
C       10.69499999      16.05500003      12.50000001
C        9.98200001       9.87999999      12.50000001
C        8.55599998      14.82000001      12.50000001
C       16.39899998      13.58499999      12.50000001
C        8.55599998      12.35000002      12.50000001
C       16.39899998      11.11500001      12.50000001
C       14.97300001      13.58499999      12.50000001
C       14.26000002      12.35000002      12.50000001
C       14.97300001      11.11500001      12.50000001
C       14.26000002      14.82000001      12.50000001
C       12.83400000      14.82000001      12.50000001
C       12.12100002      13.58499999      12.50000001
C       12.83400000      12.35000002      12.50000001
C       12.12100002      11.11500001      12.50000001
C       10.69499999      13.58499999      12.50000001
C        9.98200001      12.35000002      12.50000001
C       10.69499999      11.11500001      12.50000001
C        9.98200001      14.82000001      12.50000001
C        9.26600001      18.53024400      17.50000000
C       17.10900001      17.29524398      17.50000000
C        9.26600001      16.06024401      17.50000000
C       17.10900001      14.82524400      17.50000000
C       15.68299998      17.29524398      17.50000000
C       14.97000000      16.06024401      17.50000000
C       15.68299998      14.82524400      17.50000000
C       14.97000000      18.53024400      17.50000000
C       13.54399997      18.53024400      17.50000000
C       12.83099999      17.29524398      17.50000000
C       13.54399997      16.06024401      17.50000000
C       12.83099999      14.82524400      17.50000000
C       11.40500002      17.29524398      17.50000000
C       10.69199998      16.06024401      17.50000000
C       11.40500002      14.82524400      17.50000000
C       10.69199998      18.53024400      17.50000000
C        9.26600001      13.59024398      17.50000000
C       17.10900001      12.35524401      17.50000000
C        9.26600001      11.12024399      17.50000000
C       17.10900001       9.88524398      17.50000000
C       15.68299998      12.35524401      17.50000000
C       14.97000000      11.12024399      17.50000000
C       15.68299998       9.88524398      17.50000000
C       14.97000000      13.59024398      17.50000000
C       13.54399997      13.59024398      17.50000000
C       12.83099999      12.35524401      17.50000000
C       13.54399997      11.12024399      17.50000000
C       12.83099999       9.88524398      17.50000000
C       11.40500002      12.35524401      17.50000000
C       10.69199998      11.12024399      17.50000000
C       11.40500002       9.88524398      17.50000000
C       10.69199998      13.59024398      17.50000000
O       25.17704397       1.57523625      14.94438247
H       25.82787301       2.10926715      15.44026177
H       24.29374205       1.84238996      15.19378335
O        5.74989072      27.05728366      15.09430241
H        5.08336089      27.65362175      15.28562779
H       21.20208870      27.12172519      15.15170674
O       10.87132059      37.36947235      15.12719071
H       11.80599509      37.44448274      15.34659001
H       11.02920183      36.76534769      14.45090199
O       24.94987181      24.43602632      14.93180547
H       24.71035253      25.41576195      14.73222036
H       25.79771761      24.57258729      15.34473162
O       15.09805531      24.50008970      14.84996694
H       15.17660868      23.61154806      15.28646915
H       15.86499269      25.01547021      15.04996197
O       20.17471627      29.79136606      14.94766959
H       19.73980911      29.24735666      14.32131883
H       19.44029279      30.02560145      15.54783187
O       10.37134481      29.80941284      15.04807441
H       11.29137662      29.65831390      14.95883623
H       21.30718794      23.75840324      14.85565868
O       17.08913363      27.53622142      14.79321527
H       18.04100224      27.21804209      14.86019736
H       17.07667988      28.40784399      15.22715668
C        8.55599998      19.75999998      12.50000001
C       16.39899998      28.40500000      12.50000001
C        8.55599998      27.16999998      12.50000001
C       16.39899998      25.93500001      12.50000001
C       14.97300001      28.40500000      12.50000001
C       14.26000002      27.16999998      12.50000001
C       14.97300001      25.93500001      12.50000001
C       14.26000002      19.75999998      12.50000001
C       12.83400000      19.75999998      12.50000001
C       12.12100002      28.40500000      12.50000001
C       12.83400000      27.16999998      12.50000001
C       12.12100002      25.93500001      12.50000001
C       10.69499999      28.40500000      12.50000001
C        9.98200001      27.16999998      12.50000001
C       10.69499999      25.93500001      12.50000001
C        9.98200001      19.75999998      12.50000001
C        8.55599998      24.70000000      12.50000001
C       16.39899998      23.46499998      12.50000001
C        8.55599998      22.23000001      12.50000001
C       16.39899998      20.99499999      12.50000001
C       14.97300001      23.46499998      12.50000001
C       14.26000002      22.23000001      12.50000001
C       14.97300001      20.99499999      12.50000001