1408
Lattice="34.224 0.0 0.0 0.0 39.52 0.0 0.0 0.0 29.999999999999996" Properties=species:S:1:pos:R:3 ipi_comment="Step:           0  Bead:       0 positions{ase}  cell{ase}" pbc="T T T"
C        0.00000000       0.00000000      12.50000001
C        7.84300000       8.64500000      12.50000001
C        0.00000000       7.41000000      12.50000001
C        7.84300000       6.17500000      12.50000001
C        6.41700000       8.64500000      12.50000001
C        5.70400000       7.41000000      12.50000001
C        6.41700000       6.17500000      12.50000001
C        5.70400000       0.00000000      12.50000001
C        4.27800000       0.00000000      12.50000001
C        3.56500000       8.64500000      12.50000001
C        4.27800000       7.41000000      12.50000001
C        3.56500000       6.17500000      12.50000001
C        2.13900000       8.64500000      12.50000001
C        1.42600000       7.41000000      12.50000001
C        2.13900000       6.17500000      12.50000001
C        1.42600000       0.00000000      12.50000001
C        0.00000000       4.94000000      12.50000001
C        7.84300000       3.70500000      12.50000001
C        0.00000000       2.47000000      12.50000001
C        7.84300000       1.23500000      12.50000001
C        6.41700000       3.70500000      12.50000001
C        5.70400000       2.47000000      12.50000001
C        6.41700000       1.23500000      12.50000001
C        5.70400000       4.94000000      12.50000001
C        4.27800000       4.94000000      12.50000001
C        3.56500000       3.70500000      12.50000001
C        4.27800000       2.47000000      12.50000001
C        3.56500000       1.23500000      12.50000001
C        2.13900000       3.70500000      12.50000001
C        1.42600000       2.47000000      12.50000001
C        2.13900000       1.23500000      12.50000001
C        1.42600000       4.94000000      12.50000001
C        0.71000000       8.65024400      17.49999999
C        8.55300000       7.41524400      17.49999999
C        0.71000000       6.18024400      17.49999999
C        8.55300000       4.94524400      17.49999999
C        7.12700000       7.41524400      17.49999999
C        6.41400000       6.18024400      17.49999999
C        7.12700000       4.94524400      17.49999999
C        6.41400000       8.65024400      17.49999999
C        4.98800000       8.65024400      17.49999999
C        4.27500000       7.41524400      17.49999999
C        4.98800000       6.18024400      17.49999999
C        4.27500000       4.94524400      17.49999999
C        2.84900000       7.41524400      17.49999999
C        2.13600000       6.18024400      17.49999999
C        2.84900000       4.94524400      17.49999999
C        2.13600000       8.65024400      17.49999999
C        0.71000000       3.71024400      17.49999999
C        8.55300000       2.47524400      17.49999999
C        0.71000000       1.24024400      17.49999999
C        8.55300000       0.00524400      17.49999999
C        7.12700000       2.47524400      17.49999999
C        6.41400000       1.24024400      17.49999999
C        7.12700000       0.00524400      17.49999999
C        6.41400000       3.71024400      17.49999999
C        4.98800000       3.71024400      17.49999999
C        4.27500000       2.47524400      17.49999999
C        4.98800000       1.24024400      17.49999999
C        4.27500000       0.00524400      17.49999999
C        2.84900000       2.47524400      17.49999999
C        2.13600000       1.24024400      17.49999999
C        2.84900000       0.00524400      17.49999999
C        2.13600000       3.71024400      17.49999999
O        1.33487379       2.58142365      15.10000937
H        1.81448755       3.43685117      15.02162344
H        1.74972059       1.98810478      14.46697131
O        2.88126276       9.73092298      14.89995353
H        3.86206867       9.73036837      14.97955130
H        2.56602274       0.50085171      15.53451319
O        2.73166516       4.90972428      15.02279181
H        2.31121746       5.79845368      15.01423296
H        3.46782307       4.95980463      14.40443987
O        7.16743068       2.62823876      15.02863256
H        8.15076133       2.62419648      15.02144210
H        6.88869681       1.97582112      14.37839398
O        5.81328040       4.99181853      14.97209400
H        5.13137724       4.87552079      15.64145372
H        6.33299726       4.15693165      14.97105813
O        7.01354651       7.43325977      15.02469706
H        7.73927372       7.39008837      14.39355868
H        6.59295887       6.54451646      15.01547360
O        5.59404931       9.75500794      14.97325052
H        6.07866821       8.89955647      14.98331174
H        6.04308871       0.44567567      15.60489564
O        1.53951917       7.35344641      14.97275382
H        2.05191786       8.19241138      14.96908825
H        0.84965521       7.46516035      15.63448307
C        0.00000000       9.88000000      12.50000001
C        7.84300000      18.52500000      12.50000001
C        0.00000000      17.29000000      12.50000001
C        7.84300000      16.05500000      12.50000001
C        6.41700000      18.52500000      12.50000001
C        5.70400000      17.29000000      12.50000001
C        6.41700000      16.05500000      12.50000001
C        5.70400000       9.88000000      12.50000001
C        4.27800000       9.88000000      12.50000001
C        3.56500000      18.52500000      12.50000001
C        4.27800000      17.29000000      12.50000001
C        3.56500000      16.05500000      12.50000001
C        2.13900000      18.52500000      12.50000001
C        1.42600000      17.29000000      12.50000001
C        2.13900000      16.05500000      12.50000001
C        1.42600000       9.88000000      12.50000001
C        0.00000000      14.82000000      12.50000001
C        7.84300000      13.58500000      12.50000001
C        0.00000000      12.35000000      12.50000001
C        7.84300000      11.11500000      12.50000001
C        6.41700000      13.58500000      12.50000001
C        5.70400000      12.35000000      12.50000001
C        6.41700000      11.11500000      12.50000001
C        5.70400000      14.82000000      12.50000001
C        4.27800000      14.82000000      12.50000001
C        3.56500000      13.58500000      12.50000001
C        4.27800000      12.35000000      12.50000001
C        3.56500000      11.11500000      12.50000001
C        2.13900000      13.58500000      12.50000001
C        1.42600000      12.35000000      12.50000001
C        2.13900000      11.11500000      12.50000001
C        1.42600000      14.82000000      12.50000001
C        0.71000000      18.53024400      17.49999999
C        8.55300000      17.29524400      17.49999999
C        0.71000000      16.06024400      17.49999999
C        8.55300000      14.82524400      17.49999999
C        7.12700000      17.29524400      17.49999999
C        6.41400000      16.06024400      17.49999999
C        7.12700000      14.82524400      17.49999999
C        6.41400000      18.53024400      17.49999999
C        4.98800000      18.53024400      17.49999999
C        4.27500000      17.29524400      17.49999999
C        4.98800000      16.06024400      17.49999999
C        4.27500000      14.82524400      17.49999999
C        2.84900000      17.29524400      17.49999999
C        2.13600000      16.06024400      17.49999999
C        2.84900000      14.82524400      17.49999999
C        2.13600000      18.53024400      17.49999999
C        0.71000000      13.59024400      17.49999999
C        8.55300000      12.35524400      17.49999999
C        0.71000000      11.12024400      17.49999999
C        8.55300000       9.88524400      17.49999999
C        7.12700000      12.35524400      17.49999999
C        6.41400000      11.12024400      17.49999999
C        7.12700000       9.88524400      17.49999999
C        6.41400000      13.59024400      17.49999999
C        4.98800000      13.59024400      17.49999999
C        4.27500000      12.35524400      17.49999999
C        4.98800000      11.12024400      17.49999999
C        4.27500000       9.88524400      17.49999999
C        2.84900000      12.35524400      17.49999999
C        2.13600000      11.12024400      17.49999999
C        2.84900000       9.88524400      17.49999999
C        2.13600000      13.59024400      17.49999999
O        1.33487379      12.46142365      15.10000937
H        1.81448755      13.31685117      15.02162344
H        1.74972059      11.86810478      14.46697131
O        2.88126276      19.61092298      14.89995353
H        3.86206867      19.61036837      14.97955130
H        2.56602274      10.38085171      15.53451319
O        2.73166516      14.78972428      15.02279181
H        2.31121746      15.67845368      15.01423296
H        3.46782307      14.83980463      14.40443987
O        7.16743068      12.50823876      15.02863256
H        8.15076133      12.50419648      15.02144210
H        6.88869681      11.85582112      14.37839398
O        5.81328040      14.87181853      14.97209400
H        5.13137724      14.75552079      15.64145372
H        6.33299726      14.03693165      14.97105813
O        7.01354651      17.31325977      15.02469706
H        7.73927372      17.27008837      14.39355868
H        6.59295887      16.42451646      15.01547360
O        5.59404931      19.63500794      14.97325052
H        6.07866821      18.77955647      14.98331174
H        6.04308871      10.32567567      15.60489564
O        1.53951917      17.23344641      14.97275382
H        2.05191786      18.07241138      14.96908825
H        0.84965521      17.34516035      15.63448307
C        0.00000000      19.76000000      12.50000001
C        7.84300000      28.40500000      12.50000001
C        0.00000000      27.17000000      12.50000001
C        7.84300000      25.93500000      12.50000001
C        6.41700000      28.40500000      12.50000001
C        5.70400000      27.17000000      12.50000001
C        6.41700000      25.93500000      12.50000001
C        5.70400000      19.76000000      12.50000001
C        4.27800000      19.76000000      12.50000001
C        3.56500000      28.40500000      12.50000001
C        4.27800000      27.17000000      12.50000001
C        3.56500000      25.93500000      12.50000001
C        2.13900000      28.40500000      12.50000001
C        1.42600000      27.17000000      12.50000001
C        2.13900000      25.93500000      12.50000001
C        1.42600000      19.76000000      12.50000001
C        0.00000000      24.70000000      12.50000001
C        7.84300000      23.46500000      12.50000001
C        0.00000000      22.23000000      12.50000001
C        7.84300000      20.99500000      12.50000001
C        6.41700000      23.46500000      12.50000001
C        5.70400000      22.23000000      12.50000001
C        6.41700000      20.99500000      12.50000001
C        5.70400000      24.70000000      12.50000001
C        4.27800000      24.70000000      12.50000001
C        3.56500000      23.46500000      12.50000001
C        4.27800000      22.23000000      12.50000001
C        3.56500000      20.99500000      12.50000001
C        2.13900000      23.46500000      12.50000001
C        1.42600000      22.23000000      12.50000001
C        2.13900000      20.99500000      12.50000001
C        1.42600000      24.70000000      12.50000001
C        0.71000000      28.41024400      17.49999999
C        8.55300000      27.17524400      17.49999999
C        0.71000000      25.94024400      17.49999999
C        8.55300000      24.70524400      17.49999999
C        7.12700000      27.17524400      17.49999999
C        6.41400000      25.94024400      17.49999999
C        7.12700000      24.70524400      17.49999999
C        6.41400000      28.41024400      17.49999999
C        4.98800000      28.41024400      17.49999999
C        4.27500000      27.17524400      17.49999999
C        4.98800000      25.94024400      17.49999999
C        4.27500000      24.70524400      17.49999999
C        2.84900000      27.17524400      17.49999999
C        2.13600000      25.94024400      17.49999999
C        2.84900000      24.70524400      17.49999999
C        2.13600000      28.41024400      17.49999999
C        0.71000000      23.47024400      17.49999999
C        8.55300000      22.23524400      17.49999999
C        0.71000000      21.00024400      17.49999999
C        8.55300000      19.76524400      17.49999999
C        7.12700000      22.23524400      17.49999999
C        6.41400000      21.00024400      17.49999999
C        7.12700000      19.76524400      17.49999999
C        6.41400000      23.47024400      17.49999999
C        4.98800000      23.47024400      17.49999999
C        4.27500000      22.23524400      17.49999999
C        4.98800000      21.00024400      17.49999999
C        4.27500000      19.76524400      17.49999999
C        2.84900000      22.23524400      17.49999999
C        2.13600000      21.00024400      17.49999999
C        2.84900000      19.76524400      17.49999999
C        2.13600000      23.47024400      17.49999999
O        1.33487379      22.34142365      15.10000937
H        1.81448755      23.19685117      15.02162344
H        1.74972059      21.74810478      14.46697131
O        2.88126276      29.49092298      14.89995353
H        3.86206867      29.49036837      14.97955130
H        2.56602274      20.26085171      15.53451319
O        2.73166516      24.66972428      15.02279181
H        2.31121746      25.55845368      15.01423296
H        3.46782307      24.71980463      14.40443987
O        7.16743068      22.38823876      15.02863256
H        8.15076133      22.38419648      15.02144210
H        6.88869681      21.73582112      14.37839398
O        5.81328040      24.75181853      14.97209400
H        5.13137724      24.63552079      15.64145372
H        6.33299726      23.91693165      14.97105813
O        7.01354651      27.19325977      15.02469706
H        7.73927372      27.15008837      14.39355868
H        6.59295887      26.30451646      15.01547360
O        5.59404931      29.51500794      14.97325052
H        6.07866821      28.65955647      14.98331174
H        6.04308871      20.20567567      15.60489564
O        1.53951917      27.11344641      14.97275382
H        2.05191786      27.95241138      14.96908825
H        0.84965521      27.22516035      15.63448307
C        0.00000000      29.64000000      12.50000001
C        7.84300000      38.28500000      12.50000001
C        0.00000000      37.05000000      12.50000001
C        7.84300000      35.81500000      12.50000001
C        6.41700000      38.28500000      12.50000001
C        5.70400000      37.05000000      12.50000001
C        6.41700000      35.81500000      12.50000001
C        5.70400000      29.64000000      12.50000001
C        4.27800000      29.64000000      12.50000001
C        3.56500000      38.28500000      12.50000001
C        4.27800000      37.05000000      12.50000001
C        3.56500000      35.81500000      12.50000001
C        2.13900000      38.28500000      12.50000001
C        1.42600000      37.05000000      12.50000001
C        2.13900000      35.81500000      12.50000001
C        1.42600000      29.64000000      12.50000001
C        0.00000000      34.58000000      12.50000001
C        7.84300000      33.34500000      12.50000001
C        0.00000000      32.11000000      12.50000001
C        7.84300000      30.87500000      12.50000001
C        6.41700000      33.34500000      12.50000001
C        5.70400000      32.11000000      12.50000001
C        6.41700000      30.87500000      12.50000001
C        5.70400000      34.58000000      12.50000001
C        4.27800000      34.58000000      12.50000001
C        3.56500000      33.34500000      12.50000001
C        4.27800000      32.11000000      12.50000001
C        3.56500000      30.87500000      12.50000001
C        2.13900000      33.34500000      12.50000001
C        1.42600000      32.11000000      12.50000001
C        2.13900000      30.87500000      12.50000001
C        1.42600000      34.58000000      12.50000001
C        0.71000000      38.29024400      17.49999999
C        8.55300000      37.05524400      17.49999999
C        0.71000000      35.82024400      17.49999999
C        8.55300000      34.58524400      17.49999999
C        7.12700000      37.05524400      17.49999999
C        6.41400000      35.82024400      17.49999999
C        7.12700000      34.58524400      17.49999999
C        6.41400000      38.29024400      17.49999999
C        4.98800000      38.29024400      17.49999999
C        4.27500000      37.05524400      17.49999999
C        4.98800000      35.82024400      17.49999999
C        4.27500000      34.58524400      17.49999999
C        2.84900000      37.05524400      17.49999999
C        2.13600000      35.82024400      17.49999999
C        2.84900000      34.58524400      17.49999999
C        2.13600000      38.29024400      17.49999999
C        0.71000000      33.35024400      17.49999999
C        8.55300000      32.11524400      17.49999999
C        0.71000000      30.88024400      17.49999999
C        8.55300000      29.64524400      17.49999999
C        7.12700000      32.11524400      17.49999999
C        6.41400000      30.88024400      17.49999999
C        7.12700000      29.64524400      17.49999999
C        6.41400000      33.35024400      17.49999999
C        4.98800000      33.35024400      17.49999999
C        4.27500000      32.11524400      17.49999999
C        4.98800000      30.88024400      17.49999999
C        4.27500000      29.64524400      17.49999999
C        2.84900000      32.11524400      17.49999999
C        2.13600000      30.88024400      17.49999999
C        2.84900000      29.64524400      17.49999999
C        2.13600000      33.35024400      17.49999999
O        1.33487379      32.22142365      15.10000937
H        1.81448755      33.07685117      15.02162344
H        1.74972059      31.62810478      14.46697131
O        2.88126276      39.37092298      14.89995353
H        3.86206867      39.37036837      14.97955130
H        2.56602274      30.14085171      15.53451319
O        2.73166516      34.54972428      15.02279181
H        2.31121746      35.43845368      15.01423296
H        3.46782307      34.59980463      14.40443987
O        7.16743068      32.26823876      15.02863256
H        8.15076133      32.26419648      15.02144210
H        6.88869681      31.61582112      14.37839398
O        5.81328040      34.63181853      14.97209400
H        5.13137724      34.51552079      15.64145372
H        6.33299726      33.79693165      14.97105813
O        7.01354651      37.07325977      15.02469706
H        7.73927372      37.03008837      14.39355868
H        6.59295887      36.18451646      15.01547360
O        5.59404931      39.39500794      14.97325052
H        6.07866821      38.53955647      14.98331174
H        6.04308871      30.08567567      15.60489564
O        1.53951917      36.99344641      14.97275382
H        2.05191786      37.83241138      14.96908825
H        0.84965521      37.10516035      15.63448307
C        8.55600000       0.00000000      12.50000001
C       16.39900000       8.64500000      12.50000001
C        8.55600000       7.41000000      12.50000001
C       16.39900000       6.17500000      12.50000001
C       14.97300000       8.64500000      12.50000001
C       14.26000000       7.41000000      12.50000001
C       14.97300000       6.17500000      12.50000001
C       14.26000000       0.00000000      12.50000001
C       12.83400000       0.00000000      12.50000001
C       12.12100000       8.64500000      12.50000001
C       12.83400000       7.41000000      12.50000001
C       12.12100000       6.17500000      12.50000001
C       10.69500000       8.64500000      12.50000001
C        9.98200000       7.41000000      12.50000001
C       10.69500000       6.17500000      12.50000001
C        9.98200000       0.00000000      12.50000001
C        8.55600000       4.94000000      12.50000001
C       16.39900000       3.70500000      12.50000001
C        8.55600000       2.47000000      12.50000001
C       16.39900000       1.23500000      12.50000001
C       14.97300000       3.70500000      12.50000001
C       14.26000000       2.47000000      12.50000001
C       14.97300000       1.23500000      12.50000001
C       14.26000000       4.94000000      12.50000001
C       12.83400000       4.94000000      12.50000001
C       12.12100000       3.70500000      12.50000001
C       12.83400000       2.47000000      12.50000001
C       12.12100000       1.23500000      12.50000001
C       10.69500000       3.70500000      12.50000001
C        9.98200000       2.47000000      12.50000001
C       10.69500000       1.23500000      12.50000001
C        9.98200000       4.94000000      12.50000001
C        9.26600000       8.65024400      17.49999999
C       17.10900000       7.41524400      17.49999999
C        9.26600000       6.18024400      17.49999999
C       17.10900000       4.94524400      17.49999999
C       15.68300000       7.41524400      17.49999999
C       14.97000000       6.18024400      17.49999999
C       15.68300000       4.94524400      17.49999999
C       14.97000000       8.65024400      17.49999999
C       13.54400000       8.65024400      17.49999999
C       12.83100000       7.41524400      17.49999999
C       13.54400000       6.18024400      17.49999999
C       12.83100000       4.94524400      17.49999999
C       11.40500000       7.41524400      17.49999999
C       10.69200000       6.18024400      17.49999999
C       11.40500000       4.94524400      17.49999999
C       10.69200000       8.65024400      17.49999999
C        9.26600000       3.71024400      17.49999999
C       17.10900000       2.47524400      17.49999999
C        9.26600000       1.24024400      17.49999999
C       17.10900000       0.00524400      17.49999999
C       15.68300000       2.47524400      17.49999999
C       14.97000000       1.24024400      17.49999999
C       15.68300000       0.00524400      17.49999999
C       14.97000000       3.71024400      17.49999999
C       13.54400000       3.71024400      17.49999999
C       12.83100000       2.47524400      17.49999999
C       13.54400000       1.24024400      17.49999999
C       12.83100000       0.00524400      17.49999999
C       11.40500000       2.47524400      17.49999999
C       10.69200000       1.24024400      17.49999999
C       11.40500000       0.00524400      17.49999999
C       10.69200000       3.71024400      17.49999999
O        9.89087379       2.58142365      15.10000937
H       10.37048755       3.43685117      15.02162344
H       10.30572059       1.98810478      14.46697131
O       11.43726276       9.73092298      14.89995353
H       12.41806867       9.73036837      14.97955130
H       11.12202274       0.50085171      15.53451319
O       11.28766516       4.90972428      15.02279181
H       10.86721746       5.79845368      15.01423296
H       12.02382307       4.95980463      14.40443987
O       15.72343068       2.62823876      15.02863256
H       16.70676133       2.62419648      15.02144210
H       15.44469681       1.97582112      14.37839398
O       14.36928040       4.99181853      14.97209400
H       13.68737724       4.87552079      15.64145372
H       14.88899726       4.15693165      14.97105813
O       15.56954651       7.43325977      15.02469706
H       16.29527372       7.39008837      14.39355868
H       15.14895887       6.54451646      15.01547360
O       14.15004931       9.75500794      14.97325052
H       14.63466821       8.89955647      14.98331174
H       14.59908871       0.44567567      15.60489564
O       10.09551917       7.35344641      14.97275382
H       10.60791786       8.19241138      14.96908825
H        9.40565521       7.46516035      15.63448307
C        8.55600000       9.88000000      12.50000001
C       16.39900000      18.52500000      12.50000001
C        8.55600000      17.29000000      12.50000001
C       16.39900000      16.05500000      12.50000001
C       14.97300000      18.52500000      12.50000001
C       14.26000000      17.29000000      12.50000001
C       14.97300000      16.05500000      12.50000001
C       14.26000000       9.88000000      12.50000001
C       12.83400000       9.88000000      12.50000001
C       12.12100000      18.52500000      12.50000001
C       12.83400000      17.29000000      12.50000001
C       12.12100000      16.05500000      12.50000001
C       10.69500000      18.52500000      12.50000001
C        9.98200000      17.29000000      12.50000001
C       10.69500000      16.05500000      12.50000001
C        9.98200000       9.88000000      12.50000001
C        8.55600000      14.82000000      12.50000001
C       16.39900000      13.58500000      12.50000001
C        8.55600000      12.35000000      12.50000001
C       16.39900000      11.11500000      12.50000001
C       14.97300000      13.58500000      12.50000001
C       14.26000000      12.35000000      12.50000001
C       14.97300000      11.11500000      12.50000001
C       14.26000000      14.82000000      12.50000001
C       12.83400000      14.82000000      12.50000001
C       12.12100000      13.58500000      12.50000001
C       12.83400000      12.35000000      12.50000001
C       12.12100000      11.11500000      12.50000001
C       10.69500000      13.58500000      12.50000001
C        9.98200000      12.35000000      12.50000001
C       10.69500000      11.11500000      12.50000001
C        9.98200000      14.82000000      12.50000001
C        9.26600000      18.53024400      17.49999999
C       17.10900000      17.29524400      17.49999999
C        9.26600000      16.06024400      17.49999999
C       17.10900000      14.82524400      17.49999999
C       15.68300000      17.29524400      17.49999999
C       14.97000000      16.06024400      17.49999999
C       15.68300000      14.82524400      17.49999999
C       14.97000000      18.53024400      17.49999999
C       13.54400000      18.53024400      17.49999999
C       12.83100000      17.29524400      17.49999999
C       13.54400000      16.06024400      17.49999999
C       12.83100000      14.82524400      17.49999999
C       11.40500000      17.29524400      17.49999999
C       10.69200000      16.06024400      17.49999999
C       11.40500000      14.82524400      17.49999999
C       10.69200000      18.53024400      17.49999999
C        9.26600000      13.59024400      17.49999999
C       17.10900000      12.35524400      17.49999999
C        9.26600000      11.12024400      17.49999999
C       17.10900000       9.88524400      17.49999999
C       15.68300000      12.35524400      17.49999999
C       14.97000000      11.12024400      17.49999999
C       15.68300000       9.88524400      17.49999999
C       14.97000000      13.59024400      17.49999999
C       13.54400000      13.59024400      17.49999999
C       12.83100000      12.35524400      17.49999999
C       13.54400000      11.12024400      17.49999999
C       12.83100000       9.88524400      17.49999999
C       11.40500000      12.35524400      17.49999999
C       10.69200000      11.12024400      17.49999999
C       11.40500000       9.88524400      17.49999999
C       10.69200000      13.59024400      17.49999999
O        9.89087379      12.46142365      15.10000937
H       10.37048755      13.31685117      15.02162344
H       10.30572059      11.86810478      14.46697131
O       11.43726276      19.61092298      14.89995353
H       12.41806867      19.61036837      14.97955130
H       11.12202274      10.38085171      15.53451319
O       11.28766516      14.78972428      15.02279181
H       10.86721746      15.67845368      15.01423296
H       12.02382307      14.83980463      14.40443987
O       15.72343068      12.50823876      15.02863256
H       16.70676133      12.50419648      15.02144210
H       15.44469681      11.85582112      14.37839398
O       14.36928040      14.87181853      14.97209400
H       13.68737724      14.75552079      15.64145372
H       14.88899726      14.03693165      14.97105813
O       15.56954651      17.31325977      15.02469706
H       16.29527372      17.27008837      14.39355868
H       15.14895887      16.42451646      15.01547360
O       14.15004931      19.63500794      14.97325052
H       14.63466821      18.77955647      14.98331174
H       14.59908871      10.32567567      15.60489564
O       10.09551917      17.23344641      14.97275382
H       10.60791786      18.07241138      14.96908825
H        9.40565521      17.34516035      15.63448307
C        8.55600000      19.76000000      12.50000001
C       16.39900000      28.40500000      12.50000001
C        8.55600000      27.17000000      12.50000001
C       16.39900000      25.93500000      12.50000001
C       14.97300000      28.40500000      12.50000001
C       14.26000000      27.17000000      12.50000001
C       14.97300000      25.93500000      12.50000001
C       14.26000000      19.76000000      12.50000001
C       12.83400000      19.76000000      12.50000001
C       12.12100000      28.40500000      12.50000001
C       12.83400000      27.17000000      12.50000001
C       12.12100000      25.93500000      12.50000001
C       10.69500000      28.40500000      12.50000001
C        9.98200000      27.17000000      12.50000001
C       10.69500000      25.93500000      12.50000001
C        9.98200000      19.76000000      12.50000001
C        8.55600000      24.70000000      12.50000001
C       16.39900000      23.46500000      12.50000001
C        8.55600000      22.23000000      12.50000001
C       16.39900000      20.99500000      12.50000001
C       14.97300000      23.46500000      12.50000001
C       14.26000000      22.23000000      12.50000001
C       14.97300000      20.99500000      12.50000001
C       14.26000000      24.70000000      12.50000001