1600
Lattice="34.224 0.0 0.0 0.0 39.52 0.0 0.0 0.0 29.999999999999996" Properties=species:S:1:pos:R:3 ipi_comment="Step:           0  Bead:       0 positions{ase}  cell{ase}" pbc="T T T"
C        0.00000000       0.00000000      12.50000001
C        0.71300000       1.23500000      12.50000001
C        0.00000000       2.47000000      12.50000001
C        0.71300000       3.70500000      12.50000001
C        2.13900000       1.23500000      12.50000001
C        2.85200000       2.47000000      12.50000001
C        2.13900000       3.70500000      12.50000001
C        2.85200000       0.00000000      12.50000001
C        3.56800000       1.22975607      17.49999999
C        0.00300000       2.46475607      17.49999999
C        3.56800000       3.69975607      17.49999999
C        0.00300000       4.93475607      17.49999999
C        1.42900000       2.46475607      17.49999999
C        2.14200000       3.69975607      17.49999999
C        1.42900000       4.93475607      17.49999999
C        2.14200000       1.22975607      17.49999999
O        1.13446059       4.42569098      15.04106472
H        0.28931611       3.90458720      15.03865298
H        1.00286593       5.16614886      14.44310013
O        1.17304298      17.54213240      14.92121798
H        0.32604824      17.03137064      15.01169744
H        1.11592363      18.31666389      15.48315314
O        3.32098903      16.13165692      14.89991835
H        3.32770077      15.38970929      15.50570205
H        2.47792139      16.63405078      15.03604808
C        0.00000000       4.94000000      12.50000001
C        0.71300000       6.17500000      12.50000001
C        0.00000000       7.41000000      12.50000001
C        0.71300000       8.64500000      12.50000001
C        2.13900000       6.17500000      12.50000001
C        2.85200000       7.41000000      12.50000001
C        2.13900000       8.64500000      12.50000001
C        2.85200000       4.94000000      12.50000001
C        3.56800000       6.16975607      17.49999999
C        0.00300000       7.40475607      17.49999999
C        3.56800000       8.63975607      17.49999999
C        0.00300000       9.87475607      17.49999999
C        1.42900000       7.40475607      17.49999999
C        2.14200000       8.63975607      17.49999999
C        1.42900000       9.87475607      17.49999999
C        2.14200000       6.16975607      17.49999999
O        0.97684885      10.99042354      15.09867343
H        1.08870276      11.74300268      14.51721022
H        1.81551839      10.45759304      15.03491110
O        0.95977922       1.15024764      15.10023936
H        1.80294741       0.64817413      14.96354526
H        0.95206359       1.89195553      14.49416173
O        3.24971596       3.03294782      14.94537715
H        2.40525890       3.55870551      14.96798350
H        3.15358559       2.30473831      15.56374672
C        0.00000000       9.88000000      12.50000001
C        0.71300000      11.11500000      12.50000001
C        0.00000000      12.35000000      12.50000001
C        0.71300000      13.58500000      12.50000001
C        2.13900000      11.11500000      12.50000001
C        2.85200000      12.35000000      12.50000001
C        2.13900000      13.58500000      12.50000001
C        2.85200000       9.88000000      12.50000001
C        3.56800000      11.10975607      17.49999999
C        0.00300000      12.34475607      17.49999999
C        3.56800000      13.57975607      17.49999999
C        0.00300000      14.81475607      17.49999999
C        1.42900000      12.34475607      17.49999999
C        2.14200000      13.57975607      17.49999999
C        1.42900000      14.81475607      17.49999999
C        2.14200000      11.10975607      17.49999999
O        3.10785238      19.49974048      15.07854950
H        3.16518230      18.72546526      14.51627821
H        3.95491370       0.25053686      14.98856338
O        3.11598313       9.59068179      14.94009965
H        3.17568777       8.91346359      15.61862910
H        3.95967417      10.11295400      14.97830700
O        1.16430522       7.69159750      15.05971727
H        1.10403611       8.36892601      14.38132598
H        0.32067629       7.16928715      15.02190039
C        0.00000000      14.82000000      12.50000001
C        0.71300000      16.05500000      12.50000001
C        0.00000000      17.29000000      12.50000001
C        0.71300000      18.52500000      12.50000001
C        2.13900000      16.05500000      12.50000001
C        2.85200000      17.29000000      12.50000001
C        2.13900000      18.52500000      12.50000001
C        2.85200000      14.82000000      12.50000001
C        3.56800000      16.04975607      17.49999999
C        0.00300000      17.28475607      17.49999999
C        3.56800000      18.51975607      17.49999999
C        0.00300000      19.75475607      17.49999999
C        1.42900000      17.28475607      17.49999999
C        2.14200000      18.51975607      17.49999999
C        1.42900000      19.75475607      17.49999999
C        2.14200000      16.04975607      17.49999999
O        3.30328249       6.29163527      14.90143082
H        2.46454922       6.82438432      14.96489968
H        3.19098951       5.53847048      15.48204118
O        1.03007068      14.24789024      15.05496205
H        1.87470283      13.72231688      15.03216277
H        1.12626708      14.97695096      14.43764215
O        3.14522059      12.85558193      14.95912837
H        3.27610149      12.11537572      15.55755802
H        3.99047503      13.37650627      14.96178933
C        0.00000000      19.76000000      12.50000001
C        0.71300000      20.99500000      12.50000001
C        0.00000000      22.23000000      12.50000001
C        0.71300000      23.46500000      12.50000001
C        2.13900000      20.99500000      12.50000001
C        2.85200000      22.23000000      12.50000001
C        2.13900000      23.46500000      12.50000001
C        2.85200000      19.76000000      12.50000001
C        3.56800000      20.98975607      17.49999999
C        0.00300000      22.22475607      17.49999999
C        3.56800000      23.45975607      17.49999999
C        0.00300000      24.69475607      17.49999999
C        1.42900000      22.22475607      17.49999999
C        2.14200000      23.45975607      17.49999999
C        1.42900000      24.69475607      17.49999999
C        2.14200000      20.98975607      17.49999999
O        1.13446059      24.18569098      15.04106472
H        0.28931611      23.66458720      15.03865298
H        1.00286593      24.92614886      14.44310013
O        1.17304298      37.30213240      14.92121798
H        0.32604824      36.79137064      15.01169744
H        1.11592363      38.07666389      15.48315314
O        3.32098903      35.89165692      14.89991835
H        3.32770077      35.14970929      15.50570205
H        2.47792139      36.39405078      15.03604808
C        0.00000000      24.70000000      12.50000001
C        0.71300000      25.93500000      12.50000001
C        0.00000000      27.17000000      12.50000001
C        0.71300000      28.40500000      12.50000001
C        2.13900000      25.93500000      12.50000001
C        2.85200000      27.17000000      12.50000001
C        2.13900000      28.40500000      12.50000001
C        2.85200000      24.70000000      12.50000001
C        3.56800000      25.92975607      17.49999999
C        0.00300000      27.16475607      17.49999999
C        3.56800000      28.39975607      17.49999999
C        0.00300000      29.63475607      17.49999999
C        1.42900000      27.16475607      17.49999999
C        2.14200000      28.39975607      17.49999999
C        1.42900000      29.63475607      17.49999999
C        2.14200000      25.92975607      17.49999999
O        0.97684885      30.75042354      15.09867343
H        1.08870276      31.50300268      14.51721022
H        1.81551839      30.21759304      15.03491110
O        0.95977922      20.91024764      15.10023936
H        1.80294741      20.40817413      14.96354526
H        0.95206359      21.65195553      14.49416173
O        3.24971596      22.79294782      14.94537715
H        2.40525890      23.31870551      14.96798350
H        3.15358559      22.06473831      15.56374672
C        0.00000000      29.64000000      12.50000001
C        0.71300000      30.87500000      12.50000001
C        0.00000000      32.11000000      12.50000001
C        0.71300000      33.34500000      12.50000001
C        2.13900000      30.87500000      12.50000001
C        2.85200000      32.11000000      12.50000001
C        2.13900000      33.34500000      12.50000001
C        2.85200000      29.64000000      12.50000001
C        3.56800000      30.86975607      17.49999999
C        0.00300000      32.10475607      17.49999999
C        3.56800000      33.33975607      17.49999999
C        0.00300000      34.57475607      17.49999999
C        1.42900000      32.10475607      17.49999999
C        2.14200000      33.33975607      17.49999999
C        1.42900000      34.57475607      17.49999999
C        2.14200000      30.86975607      17.49999999
O        3.10785238      39.25974048      15.07854950
H        3.16518230      38.48546526      14.51627821
H        3.95491370      20.01053686      14.98856338
O        3.11598313      29.35068179      14.94009965
H        3.17568777      28.67346359      15.61862910
H        3.95967417      29.87295400      14.97830700
O        1.16430522      27.45159750      15.05971727
H        1.10403611      28.12892601      14.38132598
H        0.32067629      26.92928715      15.02190039
C        0.00000000      34.58000000      12.50000001
C        0.71300000      35.81500000      12.50000001
C        0.00000000      37.05000000      12.50000001
C        0.71300000      38.28500000      12.50000001
C        2.13900000      35.81500000      12.50000001
C        2.85200000      37.05000000      12.50000001
C        2.13900000      38.28500000      12.50000001
C        2.85200000      34.58000000      12.50000001
C        3.56800000      35.80975607      17.49999999
C        0.00300000      37.04475607      17.49999999
C        3.56800000      38.27975607      17.49999999
C        0.00300000      39.51475607      17.49999999
C        1.42900000      37.04475607      17.49999999
C        2.14200000      38.27975607      17.49999999
C        1.42900000      39.51475607      17.49999999
C        2.14200000      35.80975607      17.49999999
O        3.30328249      26.05163527      14.90143082
H        2.46454922      26.58438432      14.96489968
H        3.19098951      25.29847048      15.48204118
O        1.03007068      34.00789024      15.05496205
H        1.87470283      33.48231688      15.03216277
H        1.12626708      34.73695096      14.43764215
O        3.14522059      32.61558193      14.95912837
H        3.27610149      31.87537572      15.55755802
H        3.99047503      33.13650627      14.96178933
C        4.27800000       0.00000000      12.50000001
C        4.99100000       1.23500000      12.50000001
C        4.27800000       2.47000000      12.50000001
C        4.99100000       3.70500000      12.50000001
C        6.41700000       1.23500000      12.50000001
C        7.13000000       2.47000000      12.50000001
C        6.41700000       3.70500000      12.50000001
C        7.13000000       0.00000000      12.50000001
C        7.84600000       1.22975607      17.49999999
C        4.28100000       2.46475607      17.49999999
C        7.84600000       3.69975607      17.49999999
C        4.28100000       4.93475607      17.49999999
C        5.70700000       2.46475607      17.49999999
C        6.42000000       3.69975607      17.49999999
C        5.70700000       4.93475607      17.49999999
C        6.42000000       1.22975607      17.49999999
O        5.41246059       4.42569098      15.04106472
H        4.56731611       3.90458720      15.03865298
H        5.28086593       5.16614886      14.44310013
O        5.45104298      17.54213240      14.92121798
H        4.60404824      17.03137064      15.01169744
H        5.39392363      18.31666389      15.48315314
O        7.59898903      16.13165692      14.89991835
H        7.60570077      15.38970929      15.50570205
H        6.75592139      16.63405078      15.03604808
C        4.27800000       4.94000000      12.50000001
C        4.99100000       6.17500000      12.50000001
C        4.27800000       7.41000000      12.50000001
C        4.99100000       8.64500000      12.50000001
C        6.41700000       6.17500000      12.50000001
C        7.13000000       7.41000000      12.50000001
C        6.41700000       8.64500000      12.50000001
C        7.13000000       4.94000000      12.50000001
C        7.84600000       6.16975607      17.49999999
C        4.28100000       7.40475607      17.49999999
C        7.84600000       8.63975607      17.49999999
C        4.28100000       9.87475607      17.49999999
C        5.70700000       7.40475607      17.49999999
C        6.42000000       8.63975607      17.49999999
C        5.70700000       9.87475607      17.49999999
C        6.42000000       6.16975607      17.49999999
O        5.25484885      10.99042354      15.09867343
H        5.36670276      11.74300268      14.51721022
H        6.09351839      10.45759304      15.03491110
O        5.23777922       1.15024764      15.10023936
H        6.08094741       0.64817413      14.96354526
H        5.23006359       1.89195553      14.49416173
O        7.52771596       3.03294782      14.94537715
H        6.68325890       3.55870551      14.96798350
H        7.43158559       2.30473831      15.56374672
C        4.27800000       9.88000000      12.50000001
C        4.99100000      11.11500000      12.50000001
C        4.27800000      12.35000000      12.50000001
C        4.99100000      13.58500000      12.50000001
C        6.41700000      11.11500000      12.50000001
C        7.13000000      12.35000000      12.50000001
C        6.41700000      13.58500000      12.50000001
C        7.13000000       9.88000000      12.50000001
C        7.84600000      11.10975607      17.49999999
C        4.28100000      12.34475607      17.49999999
C        7.84600000      13.57975607      17.49999999
C        4.28100000      14.81475607      17.49999999
C        5.70700000      12.34475607      17.49999999
C        6.42000000      13.57975607      17.49999999
C        5.70700000      14.81475607      17.49999999
C        6.42000000      11.10975607      17.49999999
O        7.38585238      19.49974048      15.07854950
H        7.44318230      18.72546526      14.51627821
H        8.23291370       0.25053686      14.98856338
O        7.39398313       9.59068179      14.94009965
H        7.45368777       8.91346359      15.61862910
H        8.23767417      10.11295400      14.97830700
O        5.44230522       7.69159750      15.05971727
H        5.38203611       8.36892601      14.38132598
H        4.59867629       7.16928715      15.02190039
C        4.27800000      14.82000000      12.50000001
C        4.99100000      16.05500000      12.50000001
C        4.27800000      17.29000000      12.50000001
C        4.99100000      18.52500000      12.50000001
C        6.41700000      16.05500000      12.50000001
C        7.13000000      17.29000000      12.50000001
C        6.41700000      18.52500000      12.50000001
C        7.13000000      14.82000000      12.50000001
C        7.84600000      16.04975607      17.49999999
C        4.28100000      17.28475607      17.49999999
C        7.84600000      18.51975607      17.49999999
C        4.28100000      19.75475607      17.49999999
C        5.70700000      17.28475607      17.49999999
C        6.42000000      18.51975607      17.49999999
C        5.70700000      19.75475607      17.49999999
C        6.42000000      16.04975607      17.49999999
O        7.58128249       6.29163527      14.90143082
H        6.74254922       6.82438432      14.96489968
H        7.46898951       5.53847048      15.48204118
O        5.30807068      14.24789024      15.05496205
H        6.15270283      13.72231688      15.03216277
H        5.40426708      14.97695096      14.43764215
O        7.42322059      12.85558193      14.95912837
H        7.55410149      12.11537572      15.55755802
H        8.26847503      13.37650627      14.96178933
C        4.27800000      19.76000000      12.50000001
C        4.99100000      20.99500000      12.50000001
C        4.27800000      22.23000000      12.50000001
C        4.99100000      23.46500000      12.50000001
C        6.41700000      20.99500000      12.50000001
C        7.13000000      22.23000000      12.50000001
C        6.41700000      23.46500000      12.50000001
C        7.13000000      19.76000000      12.50000001
C        7.84600000      20.98975607      17.49999999
C        4.28100000      22.22475607      17.49999999
C        7.84600000      23.45975607      17.49999999
C        4.28100000      24.69475607      17.49999999
C        5.70700000      22.22475607      17.49999999
C        6.42000000      23.45975607      17.49999999
C        5.70700000      24.69475607      17.49999999
C        6.42000000      20.98975607      17.49999999
O        5.41246059      24.18569098      15.04106472
H        4.56731611      23.66458720      15.03865298
H        5.28086593      24.92614886      14.44310013
O        5.45104298      37.30213240      14.92121798
H        4.60404824      36.79137064      15.01169744
H        5.39392363      38.07666389      15.48315314
O        7.59898903      35.89165692      14.89991835
H        7.60570077      35.14970929      15.50570205
H        6.75592139      36.39405078      15.03604808
C        4.27800000      24.70000000      12.50000001
C        4.99100000      25.93500000      12.50000001
C        4.27800000      27.17000000      12.50000001
C        4.99100000      28.40500000      12.50000001
C        6.41700000      25.93500000      12.50000001
C        7.13000000      27.17000000      12.50000001
C        6.41700000      28.40500000      12.50000001
C        7.13000000      24.70000000      12.50000001
C        7.84600000      25.92975607      17.49999999
C        4.28100000      27.16475607      17.49999999
C        7.84600000      28.39975607      17.49999999
C        4.28100000      29.63475607      17.49999999
C        5.70700000      27.16475607      17.49999999
C        6.42000000      28.39975607      17.49999999
C        5.70700000      29.63475607      17.49999999
C        6.42000000      25.92975607      17.49999999
O        5.25484885      30.75042354      15.09867343
H        5.36670276      31.50300268      14.51721022
H        6.09351839      30.21759304      15.03491110
O        5.23777922      20.91024764      15.10023936
H        6.08094741      20.40817413      14.96354526
H        5.23006359      21.65195553      14.49416173
O        7.52771596      22.79294782      14.94537715
H        6.68325890      23.31870551      14.96798350
H        7.43158559      22.06473831      15.56374672
C        4.27800000      29.64000000      12.50000001
C        4.99100000      30.87500000      12.50000001
C        4.27800000      32.11000000      12.50000001
C        4.99100000      33.34500000      12.50000001
C        6.41700000      30.87500000      12.50000001
C        7.13000000      32.11000000      12.50000001
C        6.41700000      33.34500000      12.50000001
C        7.13000000      29.64000000      12.50000001
C        7.84600000      30.86975607      17.49999999
C        4.28100000      32.10475607      17.49999999
C        7.84600000      33.33975607      17.49999999
C        4.28100000      34.57475607      17.49999999
C        5.70700000      32.10475607      17.49999999
C        6.42000000      33.33975607      17.49999999
C        5.70700000      34.57475607      17.49999999
C        6.42000000      30.86975607      17.49999999
O        7.38585238      39.25974048      15.07854950
H        7.44318230      38.48546526      14.51627821
H        8.23291370      20.01053686      14.98856338
O        7.39398313      29.35068179      14.94009965
H        7.45368777      28.67346359      15.61862910
H        8.23767417      29.87295400      14.97830700
O        5.44230522      27.45159750      15.05971727
H        5.38203611      28.12892601      14.38132598
H        4.59867629      26.92928715      15.02190039
C        4.27800000      34.58000000      12.50000001
C        4.99100000      35.81500000      12.50000001
C        4.27800000      37.05000000      12.50000001
C        4.99100000      38.28500000      12.50000001
C        6.41700000      35.81500000      12.50000001
C        7.13000000      37.05000000      12.50000001
C        6.41700000      38.28500000      12.50000001
C        7.13000000      34.58000000      12.50000001
C        7.84600000      35.80975607      17.49999999
C        4.28100000      37.04475607      17.49999999
C        7.84600000      38.27975607      17.49999999
C        4.28100000      39.51475607      17.49999999
C        5.70700000      37.04475607      17.49999999
C        6.42000000      38.27975607      17.49999999
C        5.70700000      39.51475607      17.49999999
C        6.42000000      35.80975607      17.49999999
O        7.58128249      26.05163527      14.90143082
H        6.74254922      26.58438432      14.96489968
H        7.46898951      25.29847048      15.48204118
O        5.30807068      34.00789024      15.05496205
H        6.15270283      33.48231688      15.03216277
H        5.40426708      34.73695096      14.43764215
O        7.42322059      32.61558193      14.95912837
H        7.55410149      31.87537572      15.55755802
H        8.26847503      33.13650627      14.96178933
C        8.55600000       0.00000000      12.50000001
C        9.26900000       1.23500000      12.50000001
C        8.55600000       2.47000000      12.50000001
C        9.26900000       3.70500000      12.50000001
C       10.69500000       1.23500000      12.50000001
C       11.40800000       2.47000000      12.50000001
C       10.69500000       3.70500000      12.50000001
C       11.40800000       0.00000000      12.50000001
C       12.12400000       1.22975607      17.49999999
C        8.55900000       2.46475607      17.49999999
C       12.12400000       3.69975607      17.49999999
C        8.55900000       4.93475607      17.49999999
C        9.98500000       2.46475607      17.49999999
C       10.69800000       3.69975607      17.49999999
C        9.98500000       4.93475607      17.49999999
C       10.69800000       1.22975607      17.49999999
O        9.69046059       4.42569098      15.04106472
H        8.84531611       3.90458720      15.03865298
H        9.55886593       5.16614886      14.44310013
O        9.72904298      17.54213240      14.92121798
H        8.88204824      17.03137064      15.01169744
H        9.67192363      18.31666389      15.48315314
O       11.87698903      16.13165692      14.89991835
H       11.88370077      15.38970929      15.50570205
H       11.03392139      16.63405078      15.03604808
C        8.55600000       4.94000000      12.50000001
C        9.26900000       6.17500000      12.50000001
C        8.55600000       7.41000000      12.50000001
C        9.26900000       8.64500000      12.50000001
C       10.69500000       6.17500000      12.50000001
C       11.40800000       7.41000000      12.50000001
C       10.69500000       8.64500000      12.50000001
C       11.40800000       4.94000000      12.50000001
C       12.12400000       6.16975607      17.49999999
C        8.55900000       7.40475607      17.49999999
C       12.12400000       8.63975607      17.49999999
C        8.55900000       9.87475607      17.49999999
C        9.98500000       7.40475607      17.49999999
C       10.69800000       8.63975607      17.49999999
C        9.98500000       9.87475607      17.49999999
C       10.69800000       6.16975607      17.49999999
O        9.53284885      10.99042354      15.09867343
H        9.64470276      11.74300268      14.51721022
H       10.37151839      10.45759304      15.03491110
O        9.51577922       1.15024764      15.10023936
H       10.35894741       0.64817413      14.96354526
H        9.50806359       1.89195553      14.49416173
O       11.80571596       3.03294782      14.94537715
H       10.96125890       3.55870551      14.96798350
H       11.70958559       2.30473831      15.56374672
C        8.55600000       9.88000000      12.50000001
C        9.26900000      11.11500000      12.50000001
C        8.55600000      12.35000000      12.50000001
C        9.26900000      13.58500000      12.50000001
C       10.69500000      11.11500000      12.50000001
C       11.40800000      12.35000000      12.50000001
C       10.69500000      13.58500000      12.50000001
C       11.40800000       9.88000000      12.50000001
C       12.12400000      11.10975607      17.49999999
C        8.55900000      12.34475607      17.49999999
C       12.12400000      13.57975607      17.49999999
C        8.55900000      14.81475607      17.49999999
C        9.98500000      12.34475607      17.49999999
C       10.69800000      13.57975607      17.49999999
C        9.98500000      14.81475607      17.49999999
C       10.69800000      11.10975607      17.49999999
O       11.66385238      19.49974048      15.07854950
H       11.72118230      18.72546526      14.51627821
H       12.51091370       0.25053686      14.98856338
O       11.67198313       9.59068179      14.94009965
H       11.73168777       8.91346359      15.61862910
H       12.51567417      10.11295400      14.97830700
O        9.72030522       7.69159750      15.05971727
H        9.66003611       8.36892601      14.38132598
H        8.87667629       7.16928715      15.02190039
C        8.55600000      14.82000000      12.50000001
C        9.26900000      16.05500000      12.50000001
C        8.55600000      17.29000000      12.50000001
C        9.26900000      18.52500000      12.50000001
C       10.69500000      16.05500000      12.50000001
C       11.40800000      17.29000000      12.50000001
C       10.69500000      18.52500000      12.50000001
C       11.40800000      14.82000000      12.50000001
C       12.12400000      16.04975607      17.49999999
C        8.55900000      17.28475607      17.49999999
C       12.12400000      18.51975607      17.49999999
C        8.55900000      19.75475607      17.49999999
C        9.98500000      17.28475607      17.49999999
C       10.69800000      18.51975607      17.49999999
C        9.98500000      19.75475607      17.49999999
C       10.69800000      16.04975607      17.49999999
O       11.85928249       6.29163527      14.90143082
H       11.02054922       6.82438432      14.96489968
H       11.74698951       5.53847048      15.48204118
O        9.58607068      14.24789024      15.05496205
H       10.43070283      13.72231688      15.03216277
H        9.68226708      14.97695096      14.43764215
O       11.70122059      12.85558193      14.95912837
H       11.83210149      12.11537572      15.55755802
H       12.54647503      13.37650627      14.96178933
C        8.55600000      19.76000000      12.50000001
C        9.26900000      20.99500000      12.50000001
C        8.55600000      22.23000000      12.50000001
C        9.26900000      23.46500000      12.50000001
C       10.69500000      20.99500000      12.50000001
C       11.40800000      22.23000000      12.50000001
C       10.69500000      23.46500000      12.50000001
C       11.40800000      19.76000000      12.50000001
C       12.12400000      20.98975607      17.49999999
C        8.55900000      22.22475607      17.49999999
C       12.12400000      23.45975607      17.49999999
C        8.55900000      24.69475607      17.49999999
C        9.98500000      22.22475607      17.49999999
C       10.69800000      23.45975607      17.49999999
C        9.98500000      24.69475607      17.49999999
C       10.69800000      20.98975607      17.49999999
O        9.69046059      24.18569098      15.04106472
H        8.84531611      23.66458720      15.03865298
H        9.55886593      24.92614886      14.44310013
O        9.72904298      37.30213240      14.92121798
H        8.88204824      36.79137064      15.01169744
H        9.67192363      38.07666389      15.48315314
O       11.87698903      35.89165692      14.89991835
H       11.88370077      35.14970929      15.50570205
H       11.03392139      36.39405078      15.03604808
C        8.55600000      24.70000000      12.50000001
C        9.26900000      25.93500000      12.50000001
C        8.55600000      27.17000000      12.50000001
C        9.26900000      28.40500000      12.50000001
C       10.69500000      25.93500000      12.50000001
C       11.40800000      27.17000000      12.50000001
C       10.69500000      28.40500000      12.50000001
C       11.40800000      24.70000000      12.50000001
C       12.12400000      25.92975607      17.49999999
C        8.55900000      27.16475607      17.49999999
C       12.12400000      28.39975607      17.49999999
C        8.55900000      29.63475607      17.49999999
C        9.98500000      27.16475607      17.49999999
C       10.69800000      28.39975607      17.49999999
C        9.98500000      29.63475607      17.49999999
C       10.69800000      25.92975607      17.49999999
O        9.53284885      30.75042354      15.09867343
H        9.64470276      31.50300268      14.51721022
H       10.37151839      30.21759304      15.03491110
O        9.51577922      20.91024764      15.10023936
H       10.35894741      20.40817413      14.96354526
H        9.50806359      21.65195553      14.49416173
O       11.80571596      22.79294782      14.94537715
H       10.96125890      23.31870551      14.96798350
H       11.70958559      22.06473831      15.56374672
C        8.55600000      29.64000000      12.50000001
C        9.26900000      30.87500000      12.50000001