1600
Lattice="34.2239999837844 0.0 0.0 0.0 39.520000003664336 0.0 0.0 0.0 30.00000001317236" Properties=species:S:1:pos:R:3 ipi_comment="Step:      265000  Bead:       0 positions{ase}  cell{ase}" pbc="T T T"
C        0.00000000       0.00000000      12.50000001
C        0.71300000       1.23500000      12.50000001
C        0.00000000       2.47000000      12.50000001
C        0.71300000       3.70500000      12.50000001
C        2.13900000       1.23500000      12.50000001
C        2.85200000       2.47000000      12.50000001
C        2.13900000       3.70500000      12.50000001
C        2.85200000       0.00000000      12.50000001
C        3.56800000       1.22975607      17.50000000
C        0.00300000       2.46475607      17.50000000
C        3.56800000       3.69975607      17.50000000
C        0.00300000       4.93475607      17.50000000
C        1.42900000       2.46475607      17.50000000
C        2.14200000       3.69975607      17.50000000
C        1.42900000       4.93475607      17.50000000
C        2.14200000       1.22975607      17.50000000
O        2.46871933       1.53171335      15.07121987
H        1.83528334       2.22827506      14.77703409
H        3.25947542       1.99467014      15.26097031
O       31.30165754      16.67807929      15.01242258
H       31.59893649      17.57452842      15.37925374
H       31.99882341      16.06195700      14.82685106
O       33.63555095      14.76328519      15.05618947
H       33.70327844      13.85127484      14.95974194
H       33.26681508      15.19801539      14.30430560
C        0.00000000       4.94000000      12.50000001
C        0.71300000       6.17499999      12.50000001
C        0.00000000       7.41000000      12.50000001
C        0.71300000       8.64500002      12.50000001
C        2.13900000       6.17499999      12.50000001
C        2.85200000       7.41000000      12.50000001
C        2.13900000       8.64500002      12.50000001
C        2.85200000       4.94000000      12.50000001
C        3.56800000       6.16975605      17.50000000
C        0.00300000       7.40475607      17.50000000
C        3.56800000       8.63975609      17.50000000
C        0.00300000       9.87475605      17.50000000
C        1.42900000       7.40475607      17.50000000
C        2.14200000       8.63975609      17.50000000
C        1.42900000       9.87475605      17.50000000
C        2.14200000       6.16975605      17.50000000
O        2.44015335       9.73638071      15.08283426
H        2.27792510      10.71459646      15.39708361
H        2.38050469       9.94863393      14.16193674
O        1.61227473      38.48885299      14.98808793
H        2.25146352      39.19293085      14.71421846
H        0.69354968      38.97311720      15.04678957
O        4.90628859      38.81823953      15.23159924
H        4.89475767       0.26871169      15.05934879
H        5.23178912      38.39932459      14.37117091
C        0.00000000       9.87999999      12.50000001
C        0.71300000      11.11500001      12.50000001
C        0.00000000      12.35000002      12.50000001
C        0.71300000      13.58499999      12.50000001
C        2.13900000      11.11500001      12.50000001
C        2.85200000      12.35000002      12.50000001
C        2.13900000      13.58499999      12.50000001
C        2.85200000       9.87999999      12.50000001
C        3.56800000      11.10975607      17.50000000
C        0.00300000      12.34475609      17.50000000
C        3.56800000      13.57975606      17.50000000
C        0.00300000      14.81475607      17.50000000
C        1.42900000      12.34475609      17.50000000
C        2.14200000      13.57975606      17.50000000
C        1.42900000      14.81475607      17.50000000
C        2.14200000      11.10975607      17.50000000
O        0.03355799      17.66127887      14.99884946
H        0.01553051      16.71514408      14.77753522
H        2.51518291      36.69314200      14.79037382
O        2.65188810       7.15696383      14.89309681
H        2.82106826       8.07910475      15.03611764
H        3.21156446       6.64578531      15.34101739
O        0.19099013       6.22815679      14.93259460
H        1.20150055       6.45940164      14.85131031
H       33.95097934       6.87746307      14.37598856
C        0.00000000      14.82000001      12.50000001
C        0.71300000      16.05500003      12.50000001
C        0.00000000      17.28999999      12.50000001
C        0.71300000      18.52500001      12.50000001
C        2.13900000      16.05500003      12.50000001
C        2.85200000      17.28999999      12.50000001
C        2.13900000      18.52500001      12.50000001
C        2.85200000      14.82000001      12.50000001
C        3.56800000      16.04975609      17.50000000
C        0.00300000      17.28475606      17.50000000
C        3.56800000      18.51975608      17.50000000
C        0.00300000      19.75475609      17.50000000
C        1.42900000      17.28475606      17.50000000
C        2.14200000      18.51975608      17.50000000
C        1.42900000      19.75475609      17.50000000
C        2.14200000      16.04975609      17.50000000
O        5.02167541       2.35996742      15.06181410
H        5.03842065       2.90731873      14.27951519
H        5.34945493       2.80706760      15.78574727
O        2.21113732      14.85935886      15.01305997
H        1.38040215      15.18319869      14.83380574
H        2.35111936      14.40972539      15.86451766
O        4.88504210      11.35511745      15.00779288
H        4.86317362      12.27929042      15.42026282
H        5.95012712      11.20054774      14.96100234
C        0.00000000      19.75999998      12.50000001
C        0.71300000      20.99499999      12.50000001
C        0.00000000      22.23000001      12.50000001
C        0.71300000      23.46499998      12.50000001
C        2.13900000      20.99499999      12.50000001
C        2.85200000      22.23000001      12.50000001
C        2.13900000      23.46499998      12.50000001
C        2.85200000      19.75999998      12.50000001
C        3.56800000      20.98975606      17.50000000
C        0.00300000      22.22475608      17.50000000
C        3.56800000      23.45975610      17.50000000
C        0.00300000      24.69475606      17.50000000
C        1.42900000      22.22475608      17.50000000
C        2.14200000      23.45975610      17.50000000
C        1.42900000      24.69475606      17.50000000
C        2.14200000      20.98975606      17.50000000
O        3.08262650      22.41574458      14.93532595
H        4.01892116      22.36125075      15.06747834
H        2.77692072      21.50931511      15.10227063
O        1.34413199      35.05208448      14.85912530
H        1.99631897      34.72418443      15.51217460
H        1.70875190      34.46088509      14.16590208
O        3.66461830      33.46981236      15.09720740
H        3.99764480      34.15713570      14.39041673
H        3.35747855      32.63989646      14.76184271
C        0.00000000      24.70000000      12.50000001
C        0.71300000      25.93500001      12.50000001
C        0.00000000      27.16999998      12.50000001
C        0.71300000      28.40500000      12.50000001
C        2.13900000      25.93500001      12.50000001
C        2.85200000      27.16999998      12.50000001
C        2.13900000      28.40500000      12.50000001
C        2.85200000      24.70000000      12.50000001
C        3.56800000      25.92975608      17.50000000
C        0.00300000      27.16475604      17.50000000
C        3.56800000      28.39975606      17.50000000
C        0.00300000      29.63475608      17.50000000
C        1.42900000      27.16475604      17.50000000
C        2.14200000      28.39975606      17.50000000
C        1.42900000      29.63475608      17.50000000
C        2.14200000      25.92975608      17.50000000
O        1.33457534      29.63698654      14.98950359
H        0.53779996      29.99544462      15.37951469
H        1.24475945      28.66559361      15.23070012
O       33.80875237      20.57124051      14.88374658
H       33.44443105      21.47526785      14.68901406
H        0.54083164      20.59720381      15.09564833
O        2.21417624      19.77117735      14.93913119
H        2.26630517      19.21063050      15.73319834
H        3.16737294      19.88615554      14.70006859
C        0.00000000      29.64000002      12.50000001
C        0.71300000      30.87499998      12.50000001
C        0.00000000      32.11000000      12.50000001
C        0.71300000      33.34500002      12.50000001
C        2.13900000      30.87499998      12.50000001
C        2.85200000      32.11000000      12.50000001
C        2.13900000      33.34500002      12.50000001
C        2.85200000      29.64000002      12.50000001
C        3.56800000      30.86975605      17.50000000
C        0.00300000      32.10475607      17.50000000
C        3.56800000      33.33975608      17.50000000
C        0.00300000      34.57475605      17.50000000
C        1.42900000      32.10475607      17.50000000
C        2.14200000      33.33975608      17.50000000
C        1.42900000      34.57475605      17.50000000
C        2.14200000      30.86975605      17.50000000
O        3.43959726      36.65619367      15.00965782
H        3.54754048      37.51790488      15.41181534
H        1.01253865      17.75857890      15.05272548
O        5.84900239      26.27248895      15.11953166
H        6.53760780      26.82951865      14.74028558
H        5.02557393      26.66187360      15.02145919
O        2.99433857      25.17845754      14.93493743
H        3.91495353      25.07907348      14.64825061
H        3.07291180      24.33833979      15.33584963
C        0.00000000      34.57999998      12.50000001
C        0.71300000      35.81500000      12.50000001
C        0.00000000      37.05000002      12.50000001
C        0.71300000      38.28499999      12.50000001
C        2.13900000      35.81500000      12.50000001
C        2.85200000      37.05000002      12.50000001
C        2.13900000      38.28499999      12.50000001
C        2.85200000      34.57999998      12.50000001
C        3.56800000      35.80975607      17.50000000
C        0.00300000      37.04475609      17.50000000
C        3.56800000      38.27975605      17.50000000
C        0.00300000      39.51475607      17.50000000
C        1.42900000      37.04475609      17.50000000
C        2.14200000      38.27975605      17.50000000
C        1.42900000      39.51475607      17.50000000
C        2.14200000      35.80975607      17.50000000
O        5.55410156      23.57737910      15.12586604
H        6.34447456      23.03482146      14.92397909
H        5.77618495      24.47032034      15.20095532
O        3.47407832      30.88768759      14.94307466
H        4.35384818      30.39819651      15.07513204
H        2.66593211      30.26610709      15.07705999
O        3.71831128      27.97822775      15.03500266
H        4.27137071      28.67012552      14.70822904
H        3.09599286      27.96649613      14.32902495
C        4.27800000       0.00000000      12.50000001
C        4.99100000       1.23500000      12.50000001
C        4.27800000       2.47000000      12.50000001
C        4.99100000       3.70500000      12.50000001
C        6.41699997       1.23500000      12.50000001
C        7.13000001       2.47000000      12.50000001
C        6.41699997       3.70500000      12.50000001
C        7.13000001       0.00000000      12.50000001
C        7.84600001       1.22975607      17.50000000
C        4.28100000       2.46475607      17.50000000
C        7.84600001       3.69975607      17.50000000
C        4.28100000       4.93475607      17.50000000
C        5.70700000       2.46475607      17.50000000
C        6.41999999       3.69975607      17.50000000
C        5.70700000       4.93475607      17.50000000
C        6.41999999       1.22975607      17.50000000
O        5.07710410       5.26953894      15.21260678
H        5.89723922       5.65851598      15.45855069
H        5.10562984       5.47399168      14.26824717
O        5.41692010      17.68323016      14.97048371
H        4.46113196      17.38261329      15.06974838
H        6.05524227      17.02543698      15.42247247
O        7.49817424      15.87660518      15.09094307
H        7.52617365      15.16259530      14.41767095
H        8.16390455      16.58499676      14.83046326
C        4.27800000       4.94000000      12.50000001
C        4.99100000       6.17499999      12.50000001
C        4.27800000       7.41000000      12.50000001
C        4.99100000       8.64500002      12.50000001
C        6.41699997       6.17499999      12.50000001
C        7.13000001       7.41000000      12.50000001
C        6.41699997       8.64500002      12.50000001
C        7.13000001       4.94000000      12.50000001
C        7.84600001       6.16975605      17.50000000
C        4.28100000       7.40475607      17.50000000
C        7.84600001       8.63975609      17.50000000
C        4.28100000       9.87475605      17.50000000
C        5.70700000       7.40475607      17.50000000
C        6.41999999       8.63975609      17.50000000
C        5.70700000       9.87475605      17.50000000
C        6.41999999       6.16975605      17.50000000
O        7.20606997      10.02075091      15.03315080
H        8.05624360      10.13102003      15.39751255
H        7.36003012       9.19840621      14.53438170
O        7.19948017       0.68706617      15.03517808
H        6.77776408       1.51981595      14.87819591
H        8.10976086       0.92629868      15.11837336
O        7.30319444       3.81969915      15.08749936
H        7.71967761       4.49352572      15.59153768
H        7.52267182       4.36465053      14.30720254
C        4.27800000       9.87999999      12.50000001
C        4.99100000      11.11500001      12.50000001
C        4.27800000      12.35000002      12.50000001
C        4.99100000      13.58499999      12.50000001
C        6.41699997      11.11500001      12.50000001
C        7.13000001      12.35000002      12.50000001
C        6.41699997      13.58499999      12.50000001
C        7.13000001       9.87999999      12.50000001
C        7.84600001      11.10975607      17.50000000
C        4.28100000      12.34475609      17.50000000
C        7.84600001      13.57975606      17.50000000
C        4.28100000      14.81475607      17.50000000
C        5.70700000      12.34475609      17.50000000
C        6.41999999      13.57975606      17.50000000
C        5.70700000      14.81475607      17.50000000
C        6.41999999      11.10975607      17.50000000
O        7.78119094      19.10594678      14.98459274
H        7.36013546      19.83639530      14.54313102
H        8.93683629      38.56393686      15.22844271
O        5.08790353       8.52624706      14.96507492
H        5.74402262       9.19223093      15.18650185
H        4.32355572       9.07931693      15.13833735
O        2.35482022       4.43068257      15.09828111
H        2.89731766       4.63052623      15.81334562
H        2.59714776       5.12607899      14.54293423
C        4.27800000      14.82000001      12.50000001
C        4.99100000      16.05500003      12.50000001
C        4.27800000      17.28999999      12.50000001
C        4.99100000      18.52500001      12.50000001
C        6.41699997      16.05500003      12.50000001
C        7.13000001      17.28999999      12.50000001
C        6.41699997      18.52500001      12.50000001
C        7.13000001      14.82000001      12.50000001
C        7.84600001      16.04975609      17.50000000
C        4.28100000      17.28475606      17.50000000
C        7.84600001      18.51975608      17.50000000
C        4.28100000      19.75475609      17.50000000
C        5.70700000      17.28475606      17.50000000
C        6.41999999      18.51975608      17.50000000
C        5.70700000      19.75475609      17.50000000
C        6.41999999      16.04975609      17.50000000
O        7.30923853       6.75674253      14.97651208
H        8.04154457       7.33795449      15.20127822
H        6.45587194       7.20991291      14.74112367
O        5.28998505      14.32046009      14.99631574
H        5.71805174      14.94557840      15.59291386
H        4.66875123      14.66227678      14.35010422
O        7.87154816      13.03572581      14.95169982
H        7.08300620      13.19974139      14.37898738
H        8.51217381      12.38440343      14.50688715
C        4.27800000      19.75999998      12.50000001
C        4.99100000      20.99499999      12.50000001
C        4.27800000      22.23000001      12.50000001
C        4.99100000      23.46499998      12.50000001
C        6.41699997      20.99499999      12.50000001
C        7.13000001      22.23000001      12.50000001
C        6.41699997      23.46499998      12.50000001
C        7.13000001      19.75999998      12.50000001
C        7.84600001      20.98975606      17.50000000
C        4.28100000      22.22475608      17.50000000
C        7.84600001      23.45975610      17.50000000
C        4.28100000      24.69475606      17.50000000
C        5.70700000      22.22475608      17.50000000
C        6.41999999      23.45975610      17.50000000
C        5.70700000      24.69475606      17.50000000
C        6.41999999      20.98975606      17.50000000
O        7.36054476      21.84123390      14.94669027
H        7.35998422      21.61151774      15.89768779
H        8.30874223      22.14152028      14.85584418
O        7.42268143      37.79529363      15.07618893
H        6.77064619      38.51771988      15.02672799
H        6.78170078      37.08648545      15.29506960
O        5.81302164      35.58055467      15.00099806
H        5.09946285      36.22537217      14.76138017
H        6.47442860      35.37804250      14.29334665
C        4.27800000      24.70000000      12.50000001
C        4.99100000      25.93500001      12.50000001
C        4.27800000      27.16999998      12.50000001
C        4.99100000      28.40500000      12.50000001
C        6.41699997      25.93500001      12.50000001
C        7.13000001      27.16999998      12.50000001
C        6.41699997      28.40500000      12.50000001
C        7.13000001      24.70000000      12.50000001
C        7.84600001      25.92975608      17.50000000
C        4.28100000      27.16475604      17.50000000
C        7.84600001      28.39975606      17.50000000
C        4.28100000      29.63475608      17.50000000
C        5.70700000      27.16475604      17.50000000
C        6.41999999      28.39975606      17.50000000
C        5.70700000      29.63475608      17.50000000
C        6.41999999      25.92975608      17.50000000
O        5.81665394      29.31201206      14.98654910
H        6.42314319      28.68515010      15.33947101
H        6.53330045      29.99655507      14.91769103
O        2.81167657      17.31322832      14.98469950
H        2.71590728      16.35311832      15.14124332
H        2.83718338      17.47298402      14.05541358
O        4.98507119      20.22139884      14.93342028
H        5.76036471      20.67861917      14.65353552
H        5.19385421      19.24741384      15.06435189
C        4.27800000      29.64000002      12.50000001
C        4.99100000      30.87499998      12.50000001
C        4.27800000      32.11000000      12.50000001
C        4.99100000      33.34500002      12.50000001
C        6.41699997      30.87499998      12.50000001
C        7.13000001      32.11000000      12.50000001
C        6.41699997      33.34500002      12.50000001
C        7.13000001      29.64000002      12.50000001
C        7.84600001      30.86975605      17.50000000
C        4.28100000      32.10475607      17.50000000
C        7.84600001      33.33975608      17.50000000
C        4.28100000      34.57475605      17.50000000
C        5.70700000      32.10475607      17.50000000
C        6.41999999      33.33975608      17.50000000
C        5.70700000      34.57475605      17.50000000
C        6.41999999      30.86975605      17.50000000
O        9.81469140      38.82471926      15.02949270
H        9.86424028       0.23746471      14.95082629
H        7.23485098      18.38875208      14.61946487
O        8.11910202      27.86725515      14.96792446
H        8.21478466      28.40777932      14.15099001
H        8.93681619      28.07072957      15.48146169
O        8.75322908      25.23488113      14.86754263
H        8.51371200      25.65802204      15.67134930
H        9.64536023      25.65032632      14.82135802
C        4.27800000      34.57999998      12.50000001
C        4.99100000      35.81500000      12.50000001
C        4.27800000      37.05000002      12.50000001
C        4.99100000      38.28499999      12.50000001
C        6.41699997      35.81500000      12.50000001
C        7.13000001      37.05000002      12.50000001
C        6.41699997      38.28499999      12.50000001
C        7.13000001      34.57999998      12.50000001
C        7.84600001      35.80975607      17.50000000
C        4.28100000      37.04475609      17.50000000
C        7.84600001      38.27975605      17.50000000
C        4.28100000      39.51475607      17.50000000
C        5.70700000      37.04475609      17.50000000
C        6.41999999      38.27975605      17.50000000
C        5.70700000      39.51475607      17.50000000
C        6.41999999      35.80975607      17.50000000
O       11.17832028      26.33366363      14.96730275
H       12.05565127      26.82377036      14.85192995
H       11.55510336      25.45643339      15.38269178
O        6.09426059      32.60260365      15.14634762
H        6.11186208      31.68869720      15.51286549
H        5.18151928      32.94917909      15.05601309
O        8.01896403      30.84109312      14.81815371
H        8.26134780      31.56859882      15.38853284
H        8.89665787      30.62702448      14.50155159
C        8.55599998       0.00000000      12.50000001
C        9.26900002       1.23500000      12.50000001
C        8.55599998       2.47000000      12.50000001
C        9.26900002       3.70500000      12.50000001
C       10.69499999       1.23500000      12.50000001
C       11.40799998       2.47000000      12.50000001
C       10.69499999       3.70500000      12.50000001
C       11.40799998       0.00000000      12.50000001
C       12.12399997       1.22975607      17.50000000
C        8.55899999       2.46475607      17.50000000
C       12.12399997       3.69975607      17.50000000
C        8.55899999       4.93475607      17.50000000
C        9.98500002       2.46475607      17.50000000
C       10.69800000       3.69975607      17.50000000
C        9.98500002       4.93475607      17.50000000
C       10.69800000       1.22975607      17.50000000
O       11.85299445       6.88535933      15.09731213
H       12.60444294       6.43345582      14.81721201
H       11.07451580       6.28968522      15.07396361
O        9.72102472      17.36108528      14.85169013
H       10.58404707      17.14557898      14.42594825
H        9.72218798      18.30135153      15.00095100
O       12.01658695      16.06210336      14.92410231
H       12.49326762      16.89426078      14.99210719
H       12.68979378      15.35553273      14.80313699
C        8.55599998       4.94000000      12.50000001
C        9.26900002       6.17499999      12.50000001
C        8.55599998       7.41000000      12.50000001
C        9.26900002       8.64500002      12.50000001
C       10.69499999       6.17499999      12.50000001
C       11.40799998       7.41000000      12.50000001
C       10.69499999       8.64500002      12.50000001
C       11.40799998       4.94000000      12.50000001
C       12.12399997       6.16975605      17.50000000
C        8.55899999       7.40475607      17.50000000
C       12.12399997       8.63975609      17.50000000
C        8.55899999       9.87475605      17.50000000
C        9.98500002       7.40475607      17.50000000
C       10.69800000       8.63975609      17.50000000
C        9.98500002       9.87475605      17.50000000
C       10.69800000       6.16975605      17.50000000
O        9.87112147      11.20969157      14.87200431
H       10.37839645      11.74109685      15.54791236
H       10.54142245      10.47671521      14.81329024
O        9.64019218       2.27940777      14.90055937
H       10.36296837       2.38345235      15.53854129
H        8.91785634       2.87562002      15.29070562
O       11.89734502       3.65626997      14.84290977
H       11.80585064       2.89480047      14.25289586
H       12.61978482       4.22115699      14.64934310
C        8.55599998       9.87999999      12.50000001
C        9.26900002      11.11500001      12.50000001
C        8.55599998      12.35000002      12.50000001
C        9.26900002      13.58499999      12.50000001
C       10.69499999      11.11500001      12.50000001
C       11.40799998      12.35000002      12.50000001
C       10.69499999      13.58499999      12.50000001
C       11.40799998       9.87999999      12.50000001
C       12.12399997      11.10975607      17.50000000
C        8.55899999      12.34475609      17.50000000
C       12.12399997      13.57975606      17.50000000
C        8.55899999      14.81475607      17.50000000
C        9.98500002      12.34475609      17.50000000
C       10.69800000      13.57975606      17.50000000
C        9.98500002      14.81475607      17.50000000
C       10.69800000      11.10975607      17.50000000
O       12.61984296      18.69606523      14.96988143
H       12.45633898      18.66136194      15.89771935
H       11.23962619      37.46557618      15.26574124
O       11.82357954       9.65203818      14.83717670
H       12.67844056      10.07988804      14.74735802
H       12.00334799       8.69121289      14.72042635
O        9.39966055       8.22166106      15.02014453
H        9.70968180       8.68014853      15.78006150
H       10.18085637       8.08407650      14.38801326
C        8.55599998      14.82000001      12.50000001
C        9.26900002      16.05500003      12.50000001
C        8.55599998      17.28999999      12.50000001
C        9.26900002      18.52500001      12.50000001
C       10.69499999      16.05500003      12.50000001
C       11.40799998      17.28999999      12.50000001
C       10.69499999      18.52500001      12.50000001
C       11.40799998      14.82000001      12.50000001
C       12.12399997      16.04975609      17.50000000
C        8.55899999      17.28475606      17.50000000
C       12.12399997      18.51975608      17.50000000
C        8.55899999      19.75475609      17.50000000
C        9.98500002      17.28475606      17.50000000
C       10.69800000      18.51975608      17.50000000
C        9.98500002      19.75475609      17.50000000
C       10.69800000      16.04975609      17.50000000
O        9.77876079       5.21443285      15.16304326
H       10.47235535       4.46250758      15.14797453
H        9.22987912       5.03533809      14.40349663
O        9.92357927      14.41348962      15.03939040
H       10.55968846      15.17043601      15.25834873
H        9.06955765      14.52255705      15.48348752
O       12.03720862      13.16598884      14.91275860
H       11.71655083      12.40063337      14.39302424
H       11.21292376      13.62576351      15.18648563
C        8.55599998      19.75999998      12.50000001
C        9.26900002      20.99499999      12.50000001
C        8.55599998      22.23000001      12.50000001
C        9.26900002      23.46499998      12.50000001
C       10.69499999      20.99499999      12.50000001
C       11.40799998      22.23000001      12.50000001
C       10.69499999      23.46499998      12.50000001
C       11.40799998      19.75999998      12.50000001
C       12.12399997      20.98975606      17.50000000
C        8.55899999      22.22475608      17.50000000
C       12.12399997      23.45975610      17.50000000
C        8.55899999      24.69475606      17.50000000
C        9.98500002      22.22475608      17.50000000
C       10.69800000      23.45975610      17.50000000
C        9.98500002      24.69475606      17.50000000
C       10.69800000      20.98975606      17.50000000
O        9.67757789      22.65685995      14.94767367
H        9.37513383      23.59505440      14.95565295
H       10.17075688      22.44969343      14.19265535
O        9.01662896      35.92260214      15.04525664
H        8.37661318      35.39594952      15.55815300
H        8.63475737      36.79617387      14.82007957
O       11.32877106      34.57215021      15.13783698
H       11.83949167      35.12475258      14.54268361
H       10.44068211      34.96533953      15.26352277
C        8.55599998      24.70000000      12.50000001
C        9.26900002      25.93500001      12.50000001
C        8.55599998      27.16999998      12.50000001
C        9.26900002      28.40500000      12.50000001
C       10.69499999      25.93500001      12.50000001
C       11.40799998      27.16999998      12.50000001
C       10.69499999      28.40500000      12.50000001
C       11.40799998      24.70000000      12.50000001
C       12.12399997      25.92975608      17.50000000
C        8.55899999      27.16475604      17.50000000
C       12.12399997      28.39975606      17.50000000
C        8.55899999      29.63475608      17.50000000
C        9.98500002      27.16475604      17.50000000
C       10.69800000      28.39975606      17.50000000
C        9.98500002      29.63475608      17.50000000
C       10.69800000      25.92975608      17.50000000
O       10.75423506      31.87821636      14.82811621
H       10.76659247      32.80473970      15.15743680
H       11.60205853      31.71039409      14.41316184
O       10.26467868      19.91227251      14.96473667
H        9.88005542      20.33774036      14.20994586
H       10.55739805      20.62855278      15.46339714
O       12.18147953      23.88391972      14.89423167
H       12.58058051      23.04309985      15.15446648
H       11.23579016      23.74358396      15.06128172
C        8.55599998      29.64000002      12.50000001