1792
Lattice="34.224 0.0 0.0 0.0 39.52 0.0 0.0 0.0 29.999999999999996" Properties=species:S:1:pos:R:3 ipi_comment="Step:           0  Bead:       0 positions{ase}  cell{ase}" pbc="T T T"
C        0.00000000       0.00000000      12.50000001
C        0.71300000       1.23500000      12.50000001
C        0.00000000       2.47000000      12.50000001
C        0.71300000       3.70500000      12.50000001
C        2.13900000       1.23500000      12.50000001
C        2.85200000       2.47000000      12.50000001
C        2.13900000       3.70500000      12.50000001
C        2.85200000       0.00000000      12.50000001
C        3.56800000       1.22975607      17.49999999
C        0.00300000       2.46475607      17.49999999
C        3.56800000       3.69975607      17.49999999
C        0.00300000       4.93475607      17.49999999
C        1.42900000       2.46475607      17.49999999
C        2.14200000       3.69975607      17.49999999
C        1.42900000       4.93475607      17.49999999
C        2.14200000       1.22975607      17.49999999
O        1.53089158       0.13760278      14.97429189
H        1.53343391      18.94839469      15.17102709
H        0.68027002       0.57152087      15.21763199
O        1.49514689      17.42189080      14.84780333
H        2.82037938      18.02445611      14.68098702
H        1.52267586      16.91659322      15.66008193
O        3.67705197      18.44448592      14.92582498
H        3.67649174      19.39890745      14.74602923
H        0.52778849      17.78683598      14.75871216
O        1.41326569      14.98220682      14.94604387
H        3.62938815      16.65688209      15.58921064
H        2.25422510      15.45839036      14.74033581
C        0.00000000       4.94000000      12.50000001
C        0.71300000       6.17500000      12.50000001
C        0.00000000       7.41000000      12.50000001
C        0.71300000       8.64500000      12.50000001
C        2.13900000       6.17500000      12.50000001
C        2.85200000       7.41000000      12.50000001
C        2.13900000       8.64500000      12.50000001
C        2.85200000       4.94000000      12.50000001
C        3.56800000       6.16975607      17.49999999
C        0.00300000       7.40475607      17.49999999
C        3.56800000       8.63975607      17.49999999
C        0.00300000       9.87475607      17.49999999
C        1.42900000       7.40475607      17.49999999
C        2.14200000       8.63975607      17.49999999
C        1.42900000       9.87475607      17.49999999
C        2.14200000       6.16975607      17.49999999
O        3.61282624      13.54705037      14.95057209
H        2.71938599      13.11233112      14.98940976
H        0.50315960      12.89791748      15.03192487
O        3.52577060       3.59101906      14.95489704
H        3.53781450       4.49358800      15.28505655
H        0.09269963       3.13305854      15.18793239
O        3.53497564       6.08628729      14.89014767
H        3.53886813       6.72605071      15.60069558
H        0.21197960       5.68705102      14.88203267
O        1.36060879       5.04084546      14.94553866
H        1.38386104       4.11828548      14.65929109
H        2.26209110       5.45982340      14.92372033
C        0.00000000       9.88000000      12.50000001
C        0.71300000      11.11500000      12.50000001
C        0.00000000      12.35000000      12.50000001
C        0.71300000      13.58500000      12.50000001
C        2.13900000      11.11500000      12.50000001
C        2.85200000      12.35000000      12.50000001
C        2.13900000      13.58500000      12.50000001
C        2.85200000       9.88000000      12.50000001
C        3.56800000      11.10975607      17.49999999
C        0.00300000      12.34475607      17.49999999
C        3.56800000      13.57975607      17.49999999
C        0.00300000      14.81475607      17.49999999
C        1.42900000      12.34475607      17.49999999
C        2.14200000      13.57975607      17.49999999
C        1.42900000      14.81475607      17.49999999
C        2.14200000      11.10975607      17.49999999
O        1.38524052      10.00301302      14.97581218
H        1.44694948       9.20354929      14.45169954
H        2.27481703      10.45842869      14.94726427
O        1.44538119       7.50246981      14.99364121
H        0.51862878       7.92603492      15.02810785
H        1.42159384       6.86486896      14.28130990
O        3.59837619       8.56930347      14.92319427
H        3.54921012       9.40714200      15.38373150
H        2.69664229       8.13480487      14.97672750
O        1.42757411       2.56684019      15.00841798
H        1.44326119       1.95354746      14.27456149
H        2.38910085       2.93014314      15.11988864
C        0.00000000      14.82000000      12.50000001
C        0.71300000      16.05500000      12.50000001
C        0.00000000      17.29000000      12.50000001
C        0.71300000      18.52500000      12.50000001
C        2.13900000      16.05500000      12.50000001
C        2.85200000      17.29000000      12.50000001
C        2.13900000      18.52500000      12.50000001
C        2.85200000      14.82000000      12.50000001
C        3.56800000      16.04975607      17.49999999
C        0.00300000      17.28475607      17.49999999
C        3.56800000      18.51975607      17.49999999
C        0.00300000      19.75475607      17.49999999
C        1.42900000      17.28475607      17.49999999
C        2.14200000      18.51975607      17.49999999
C        1.42900000      19.75475607      17.49999999
C        2.14200000      16.04975607      17.49999999
O        1.44444634      12.48503536      14.99594987
H        1.45933709      14.09397265      14.58364036
H        1.43168477      11.85775845      14.27228055
O        3.59052512      16.01872915      14.88010988
H        3.54056029      14.45700794      15.26630203
H        0.26713186      15.63726851      14.78593252
O        3.54393328      11.07275452      14.89755329
H        0.20013818      10.65528604      14.88525262
H        3.57375412      11.72125481      15.59800193
O        3.62146512       1.15008096      15.02601524
H        3.62632059       1.70028781      14.24291313
H        2.64869414       0.79230277      15.13512531
C        0.00000000      19.76000000      12.50000001
C        0.71300000      20.99500000      12.50000001
C        0.00000000      22.23000000      12.50000001
C        0.71300000      23.46500000      12.50000001
C        2.13900000      20.99500000      12.50000001
C        2.85200000      22.23000000      12.50000001
C        2.13900000      23.46500000      12.50000001
C        2.85200000      19.76000000      12.50000001
C        3.56800000      20.98975607      17.49999999
C        0.00300000      22.22475607      17.49999999
C        3.56800000      23.45975607      17.49999999
C        0.00300000      24.69475607      17.49999999
C        1.42900000      22.22475607      17.49999999
C        2.14200000      23.45975607      17.49999999
C        1.42900000      24.69475607      17.49999999
C        2.14200000      20.98975607      17.49999999
O        1.53089158      19.89760278      14.97429189
H        1.53343391      38.70839469      15.17102709
H        0.68027002      20.33152087      15.21763199
O        1.49514689      37.18189080      14.84780333
H        2.82037938      37.78445611      14.68098702
H        1.52267586      36.67659322      15.66008193
O        3.67705197      38.20448592      14.92582498
H        3.67649174      39.15890745      14.74602923
H        0.52778849      37.54683598      14.75871216
O        1.41326569      34.74220682      14.94604387
H        3.62938815      36.41688209      15.58921064
H        2.25422510      35.21839036      14.74033581
C        0.00000000      24.70000000      12.50000001
C        0.71300000      25.93500000      12.50000001
C        0.00000000      27.17000000      12.50000001
C        0.71300000      28.40500000      12.50000001
C        2.13900000      25.93500000      12.50000001
C        2.85200000      27.17000000      12.50000001
C        2.13900000      28.40500000      12.50000001
C        2.85200000      24.70000000      12.50000001
C        3.56800000      25.92975607      17.49999999
C        0.00300000      27.16475607      17.49999999
C        3.56800000      28.39975607      17.49999999
C        0.00300000      29.63475607      17.49999999
C        1.42900000      27.16475607      17.49999999
C        2.14200000      28.39975607      17.49999999
C        1.42900000      29.63475607      17.49999999
C        2.14200000      25.92975607      17.49999999
O        3.61282624      33.30705037      14.95057209
H        2.71938599      32.87233112      14.98940976
H        0.50315960      32.65791748      15.03192487
O        3.52577060      23.35101906      14.95489704
H        3.53781450      24.25358800      15.28505655
H        0.09269963      22.89305854      15.18793239
O        3.53497564      25.84628729      14.89014767
H        3.53886813      26.48605071      15.60069558
H        0.21197960      25.44705102      14.88203267
O        1.36060879      24.80084546      14.94553866
H        1.38386104      23.87828548      14.65929109
H        2.26209110      25.21982340      14.92372033
C        0.00000000      29.64000000      12.50000001
C        0.71300000      30.87500000      12.50000001
C        0.00000000      32.11000000      12.50000001
C        0.71300000      33.34500000      12.50000001
C        2.13900000      30.87500000      12.50000001
C        2.85200000      32.11000000      12.50000001
C        2.13900000      33.34500000      12.50000001
C        2.85200000      29.64000000      12.50000001
C        3.56800000      30.86975607      17.49999999
C        0.00300000      32.10475607      17.49999999
C        3.56800000      33.33975607      17.49999999
C        0.00300000      34.57475607      17.49999999
C        1.42900000      32.10475607      17.49999999
C        2.14200000      33.33975607      17.49999999
C        1.42900000      34.57475607      17.49999999
C        2.14200000      30.86975607      17.49999999
O        1.38524052      29.76301302      14.97581218
H        1.44694948      28.96354929      14.45169954
H        2.27481703      30.21842869      14.94726427
O        1.44538119      27.26246981      14.99364121
H        0.51862878      27.68603492      15.02810785
H        1.42159384      26.62486896      14.28130990
O        3.59837619      28.32930347      14.92319427
H        3.54921012      29.16714200      15.38373150
H        2.69664229      27.89480487      14.97672750
O        1.42757411      22.32684019      15.00841798
H        1.44326119      21.71354746      14.27456149
H        2.38910085      22.69014314      15.11988864
C        0.00000000      34.58000000      12.50000001
C        0.71300000      35.81500000      12.50000001
C        0.00000000      37.05000000      12.50000001
C        0.71300000      38.28500000      12.50000001
C        2.13900000      35.81500000      12.50000001
C        2.85200000      37.05000000      12.50000001
C        2.13900000      38.28500000      12.50000001
C        2.85200000      34.58000000      12.50000001
C        3.56800000      35.80975607      17.49999999
C        0.00300000      37.04475607      17.49999999
C        3.56800000      38.27975607      17.49999999
C        0.00300000      39.51475607      17.49999999
C        1.42900000      37.04475607      17.49999999
C        2.14200000      38.27975607      17.49999999
C        1.42900000      39.51475607      17.49999999
C        2.14200000      35.80975607      17.49999999
O        1.44444634      32.24503536      14.99594987
H        1.45933709      33.85397265      14.58364036
H        1.43168477      31.61775845      14.27228055
O        3.59052512      35.77872915      14.88010988
H        3.54056029      34.21700794      15.26630203
H        0.26713186      35.39726851      14.78593252
O        3.54393328      30.83275452      14.89755329
H        0.20013818      30.41528604      14.88525262
H        3.57375412      31.48125481      15.59800193
O        3.62146512      20.91008096      15.02601524
H        3.62632059      21.46028781      14.24291313
H        2.64869414      20.55230277      15.13512531
C        4.27800000       0.00000000      12.50000001
C        4.99100000       1.23500000      12.50000001
C        4.27800000       2.47000000      12.50000001
C        4.99100000       3.70500000      12.50000001
C        6.41700000       1.23500000      12.50000001
C        7.13000000       2.47000000      12.50000001
C        6.41700000       3.70500000      12.50000001
C        7.13000000       0.00000000      12.50000001
C        7.84600000       1.22975607      17.49999999
C        4.28100000       2.46475607      17.49999999
C        7.84600000       3.69975607      17.49999999
C        4.28100000       4.93475607      17.49999999
C        5.70700000       2.46475607      17.49999999
C        6.42000000       3.69975607      17.49999999
C        5.70700000       4.93475607      17.49999999
C        6.42000000       1.22975607      17.49999999
O        5.80889158       0.13760278      14.97429189
H        5.81143391      18.94839469      15.17102709
H        4.95827002       0.57152087      15.21763199
O        5.77314689      17.42189080      14.84780333
H        7.09837938      18.02445611      14.68098702
H        5.80067586      16.91659322      15.66008193
O        7.95505197      18.44448592      14.92582498
H        7.95449174      19.39890745      14.74602923
H        4.80578849      17.78683598      14.75871216
O        5.69126569      14.98220682      14.94604387
H        7.90738815      16.65688209      15.58921064
H        6.53222510      15.45839036      14.74033581
C        4.27800000       4.94000000      12.50000001
C        4.99100000       6.17500000      12.50000001
C        4.27800000       7.41000000      12.50000001
C        4.99100000       8.64500000      12.50000001
C        6.41700000       6.17500000      12.50000001
C        7.13000000       7.41000000      12.50000001
C        6.41700000       8.64500000      12.50000001
C        7.13000000       4.94000000      12.50000001
C        7.84600000       6.16975607      17.49999999
C        4.28100000       7.40475607      17.49999999
C        7.84600000       8.63975607      17.49999999
C        4.28100000       9.87475607      17.49999999
C        5.70700000       7.40475607      17.49999999
C        6.42000000       8.63975607      17.49999999
C        5.70700000       9.87475607      17.49999999
C        6.42000000       6.16975607      17.49999999
O        7.89082624      13.54705037      14.95057209
H        6.99738599      13.11233112      14.98940976
H        4.78115960      12.89791748      15.03192487
O        7.80377060       3.59101906      14.95489704
H        7.81581450       4.49358800      15.28505655
H        4.37069963       3.13305854      15.18793239
O        7.81297564       6.08628729      14.89014767
H        7.81686813       6.72605071      15.60069558
H        4.48997960       5.68705102      14.88203267
O        5.63860879       5.04084546      14.94553866
H        5.66186104       4.11828548      14.65929109
H        6.54009110       5.45982340      14.92372033
C        4.27800000       9.88000000      12.50000001
C        4.99100000      11.11500000      12.50000001
C        4.27800000      12.35000000      12.50000001
C        4.99100000      13.58500000      12.50000001
C        6.41700000      11.11500000      12.50000001
C        7.13000000      12.35000000      12.50000001
C        6.41700000      13.58500000      12.50000001
C        7.13000000       9.88000000      12.50000001
C        7.84600000      11.10975607      17.49999999
C        4.28100000      12.34475607      17.49999999
C        7.84600000      13.57975607      17.49999999
C        4.28100000      14.81475607      17.49999999
C        5.70700000      12.34475607      17.49999999
C        6.42000000      13.57975607      17.49999999
C        5.70700000      14.81475607      17.49999999
C        6.42000000      11.10975607      17.49999999
O        5.66324052      10.00301302      14.97581218
H        5.72494948       9.20354929      14.45169954
H        6.55281703      10.45842869      14.94726427
O        5.72338119       7.50246981      14.99364121
H        4.79662878       7.92603492      15.02810785
H        5.69959384       6.86486896      14.28130990
O        7.87637619       8.56930347      14.92319427
H        7.82721012       9.40714200      15.38373150
H        6.97464229       8.13480487      14.97672750
O        5.70557411       2.56684019      15.00841798
H        5.72126119       1.95354746      14.27456149
H        6.66710085       2.93014314      15.11988864
C        4.27800000      14.82000000      12.50000001
C        4.99100000      16.05500000      12.50000001
C        4.27800000      17.29000000      12.50000001
C        4.99100000      18.52500000      12.50000001
C        6.41700000      16.05500000      12.50000001
C        7.13000000      17.29000000      12.50000001
C        6.41700000      18.52500000      12.50000001
C        7.13000000      14.82000000      12.50000001
C        7.84600000      16.04975607      17.49999999
C        4.28100000      17.28475607      17.49999999
C        7.84600000      18.51975607      17.49999999
C        4.28100000      19.75475607      17.49999999
C        5.70700000      17.28475607      17.49999999
C        6.42000000      18.51975607      17.49999999
C        5.70700000      19.75475607      17.49999999
C        6.42000000      16.04975607      17.49999999
O        5.72244634      12.48503536      14.99594987
H        5.73733709      14.09397265      14.58364036
H        5.70968477      11.85775845      14.27228055
O        7.86852512      16.01872915      14.88010988
H        7.81856029      14.45700794      15.26630203
H        4.54513186      15.63726851      14.78593252
O        7.82193328      11.07275452      14.89755329
H        4.47813818      10.65528604      14.88525262
H        7.85175412      11.72125481      15.59800193
O        7.89946512       1.15008096      15.02601524
H        7.90432059       1.70028781      14.24291313
H        6.92669414       0.79230277      15.13512531
C        4.27800000      19.76000000      12.50000001
C        4.99100000      20.99500000      12.50000001
C        4.27800000      22.23000000      12.50000001
C        4.99100000      23.46500000      12.50000001
C        6.41700000      20.99500000      12.50000001
C        7.13000000      22.23000000      12.50000001
C        6.41700000      23.46500000      12.50000001
C        7.13000000      19.76000000      12.50000001
C        7.84600000      20.98975607      17.49999999
C        4.28100000      22.22475607      17.49999999
C        7.84600000      23.45975607      17.49999999
C        4.28100000      24.69475607      17.49999999
C        5.70700000      22.22475607      17.49999999
C        6.42000000      23.45975607      17.49999999
C        5.70700000      24.69475607      17.49999999
C        6.42000000      20.98975607      17.49999999
O        5.80889158      19.89760278      14.97429189
H        5.81143391      38.70839469      15.17102709
H        4.95827002      20.33152087      15.21763199
O        5.77314689      37.18189080      14.84780333
H        7.09837938      37.78445611      14.68098702
H        5.80067586      36.67659322      15.66008193
O        7.95505197      38.20448592      14.92582498
H        7.95449174      39.15890745      14.74602923
H        4.80578849      37.54683598      14.75871216
O        5.69126569      34.74220682      14.94604387
H        7.90738815      36.41688209      15.58921064
H        6.53222510      35.21839036      14.74033581
C        4.27800000      24.70000000      12.50000001
C        4.99100000      25.93500000      12.50000001
C        4.27800000      27.17000000      12.50000001
C        4.99100000      28.40500000      12.50000001
C        6.41700000      25.93500000      12.50000001
C        7.13000000      27.17000000      12.50000001
C        6.41700000      28.40500000      12.50000001
C        7.13000000      24.70000000      12.50000001
C        7.84600000      25.92975607      17.49999999
C        4.28100000      27.16475607      17.49999999
C        7.84600000      28.39975607      17.49999999
C        4.28100000      29.63475607      17.49999999
C        5.70700000      27.16475607      17.49999999
C        6.42000000      28.39975607      17.49999999
C        5.70700000      29.63475607      17.49999999
C        6.42000000      25.92975607      17.49999999
O        7.89082624      33.30705037      14.95057209
H        6.99738599      32.87233112      14.98940976
H        4.78115960      32.65791748      15.03192487
O        7.80377060      23.35101906      14.95489704
H        7.81581450      24.25358800      15.28505655
H        4.37069963      22.89305854      15.18793239
O        7.81297564      25.84628729      14.89014767
H        7.81686813      26.48605071      15.60069558
H        4.48997960      25.44705102      14.88203267
O        5.63860879      24.80084546      14.94553866
H        5.66186104      23.87828548      14.65929109
H        6.54009110      25.21982340      14.92372033
C        4.27800000      29.64000000      12.50000001
C        4.99100000      30.87500000      12.50000001
C        4.27800000      32.11000000      12.50000001
C        4.99100000      33.34500000      12.50000001
C        6.41700000      30.87500000      12.50000001
C        7.13000000      32.11000000      12.50000001
C        6.41700000      33.34500000      12.50000001
C        7.13000000      29.64000000      12.50000001
C        7.84600000      30.86975607      17.49999999
C        4.28100000      32.10475607      17.49999999
C        7.84600000      33.33975607      17.49999999
C        4.28100000      34.57475607      17.49999999
C        5.70700000      32.10475607      17.49999999
C        6.42000000      33.33975607      17.49999999
C        5.70700000      34.57475607      17.49999999
C        6.42000000      30.86975607      17.49999999
O        5.66324052      29.76301302      14.97581218
H        5.72494948      28.96354929      14.45169954
H        6.55281703      30.21842869      14.94726427
O        5.72338119      27.26246981      14.99364121
H        4.79662878      27.68603492      15.02810785
H        5.69959384      26.62486896      14.28130990
O        7.87637619      28.32930347      14.92319427
H        7.82721012      29.16714200      15.38373150
H        6.97464229      27.89480487      14.97672750
O        5.70557411      22.32684019      15.00841798
H        5.72126119      21.71354746      14.27456149
H        6.66710085      22.69014314      15.11988864
C        4.27800000      34.58000000      12.50000001
C        4.99100000      35.81500000      12.50000001
C        4.27800000      37.05000000      12.50000001
C        4.99100000      38.28500000      12.50000001
C        6.41700000      35.81500000      12.50000001
C        7.13000000      37.05000000      12.50000001
C        6.41700000      38.28500000      12.50000001
C        7.13000000      34.58000000      12.50000001
C        7.84600000      35.80975607      17.49999999
C        4.28100000      37.04475607      17.49999999
C        7.84600000      38.27975607      17.49999999
C        4.28100000      39.51475607      17.49999999
C        5.70700000      37.04475607      17.49999999
C        6.42000000      38.27975607      17.49999999
C        5.70700000      39.51475607      17.49999999
C        6.42000000      35.80975607      17.49999999
O        5.72244634      32.24503536      14.99594987
H        5.73733709      33.85397265      14.58364036
H        5.70968477      31.61775845      14.27228055
O        7.86852512      35.77872915      14.88010988
H        7.81856029      34.21700794      15.26630203
H        4.54513186      35.39726851      14.78593252
O        7.82193328      30.83275452      14.89755329
H        4.47813818      30.41528604      14.88525262
H        7.85175412      31.48125481      15.59800193
O        7.89946512      20.91008096      15.02601524
H        7.90432059      21.46028781      14.24291313
H        6.92669414      20.55230277      15.13512531
C        8.55600000       0.00000000      12.50000001
C        9.26900000       1.23500000      12.50000001
C        8.55600000       2.47000000      12.50000001
C        9.26900000       3.70500000      12.50000001
C       10.69500000       1.23500000      12.50000001
C       11.40800000       2.47000000      12.50000001
C       10.69500000       3.70500000      12.50000001
C       11.40800000       0.00000000      12.50000001
C       12.12400000       1.22975607      17.49999999
C        8.55900000       2.46475607      17.49999999
C       12.12400000       3.69975607      17.49999999
C        8.55900000       4.93475607      17.49999999
C        9.98500000       2.46475607      17.49999999
C       10.69800000       3.69975607      17.49999999
C        9.98500000       4.93475607      17.49999999
C       10.69800000       1.22975607      17.49999999
O       10.08689158       0.13760278      14.97429189
H       10.08943391      18.94839469      15.17102709
H        9.23627002       0.57152087      15.21763199
O       10.05114689      17.42189080      14.84780333
H       11.37637938      18.02445611      14.68098702
H       10.07867586      16.91659322      15.66008193
O       12.23305197      18.44448592      14.92582498
H       12.23249174      19.39890745      14.74602923
H        9.08378849      17.78683598      14.75871216
O        9.96926569      14.98220682      14.94604387
H       12.18538815      16.65688209      15.58921064
H       10.81022510      15.45839036      14.74033581
C        8.55600000       4.94000000      12.50000001
C        9.26900000       6.17500000      12.50000001
C        8.55600000       7.41000000      12.50000001
C        9.26900000       8.64500000      12.50000001
C       10.69500000       6.17500000      12.50000001
C       11.40800000       7.41000000      12.50000001
C       10.69500000       8.64500000      12.50000001
C       11.40800000       4.94000000      12.50000001
C       12.12400000       6.16975607      17.49999999
C        8.55900000       7.40475607      17.49999999
C       12.12400000       8.63975607      17.49999999
C        8.55900000       9.87475607      17.49999999
C        9.98500000       7.40475607      17.49999999
C       10.69800000       8.63975607      17.49999999
C        9.98500000       9.87475607      17.49999999
C       10.69800000       6.16975607      17.49999999
O       12.16882624      13.54705037      14.95057209
H       11.27538599      13.11233112      14.98940976
H        9.05915960      12.89791748      15.03192487
O       12.08177060       3.59101906      14.95489704
H       12.09381450       4.49358800      15.28505655
H        8.64869963       3.13305854      15.18793239
O       12.09097564       6.08628729      14.89014767
H       12.09486813       6.72605071      15.60069558
H        8.76797960       5.68705102      14.88203267
O        9.91660879       5.04084546      14.94553866
H        9.93986104       4.11828548      14.65929109
H       10.81809110       5.45982340      14.92372033
C        8.55600000       9.88000000      12.50000001
C        9.26900000      11.11500000      12.50000001
C        8.55600000      12.35000000      12.50000001
C        9.26900000      13.58500000      12.50000001
C       10.69500000      11.11500000      12.50000001
C       11.40800000      12.35000000      12.50000001
C       10.69500000      13.58500000      12.50000001
C       11.40800000       9.88000000      12.50000001
C       12.12400000      11.10975607      17.49999999
C        8.55900000      12.34475607      17.49999999
C       12.12400000      13.57975607      17.49999999
C        8.55900000      14.81475607      17.49999999
C        9.98500000      12.34475607      17.49999999
C       10.69800000      13.57975607      17.49999999
C        9.98500000      14.81475607      17.49999999
C       10.69800000      11.10975607      17.49999999
O        9.94124052      10.00301302      14.97581218
H       10.00294948       9.20354929      14.45169954
H       10.83081703      10.45842869      14.94726427
O       10.00138119       7.50246981      14.99364121
H        9.07462878       7.92603492      15.02810785
H        9.97759384       6.86486896      14.28130990
O       12.15437619       8.56930347      14.92319427
H       12.10521012       9.40714200      15.38373150
H       11.25264229       8.13480487      14.97672750
O        9.98357411       2.56684019      15.00841798
H        9.99926119       1.95354746      14.27456149
H       10.94510085       2.93014314      15.11988864
C        8.55600000      14.82000000      12.50000001
C        9.26900000      16.05500000      12.50000001
C        8.55600000      17.29000000      12.50000001
C        9.26900000      18.52500000      12.50000001
C       10.69500000      16.05500000      12.50000001
C       11.40800000      17.29000000      12.50000001
C       10.69500000      18.52500000      12.50000001
C       11.40800000      14.82000000      12.50000001
C       12.12400000      16.04975607      17.49999999
C        8.55900000      17.28475607      17.49999999
C       12.12400000      18.51975607      17.49999999
C        8.55900000      19.75475607      17.49999999
C        9.98500000      17.28475607      17.49999999
C       10.69800000      18.51975607      17.49999999
C        9.98500000      19.75475607      17.49999999
C       10.69800000      16.04975607      17.49999999
O       10.00044634      12.48503536      14.99594987
H       10.01533709      14.09397265      14.58364036
H        9.98768477      11.85775845      14.27228055
O       12.14652512      16.01872915      14.88010988