1792
Lattice="34.2239999837844 0.0 0.0 0.0 39.520000003664336 0.0 0.0 0.0 30.00000001317236" Properties=species:S:1:pos:R:3 ipi_comment="Step:      346000  Bead:       0 positions{ase}  cell{ase}" pbc="T T T"
C        0.00000000       0.00000000      12.50000001
C        0.71300000       1.23500000      12.50000001
C        0.00000000       2.47000000      12.50000001
C        0.71300000       3.70500000      12.50000001
C        2.13900000       1.23500000      12.50000001
C        2.85200000       2.47000000      12.50000001
C        2.13900000       3.70500000      12.50000001
C        2.85200000       0.00000000      12.50000001
C        3.56800000       1.22975607      17.50000000
C        0.00300000       2.46475607      17.50000000
C        3.56800000       3.69975607      17.50000000
C        0.00300000       4.93475607      17.50000000
C        1.42900000       2.46475607      17.50000000
C        2.14200000       3.69975607      17.50000000
C        1.42900000       4.93475607      17.50000000
C        2.14200000       1.22975607      17.50000000
O        1.54954109       0.03808267      15.01574383
H        9.31235093      16.74938108      15.20368864
H        2.07991264       5.44723112      14.45740675
O        1.38464093      17.26264710      15.07031048
H        2.45573896      21.93388576      15.03726317
H       10.08085835      18.35288304      14.95384914
O        3.63738264      18.61945286      14.92487856
H       10.94024381       5.45404402      15.06504851
H       33.79292632      23.85241828      14.00884365
O        1.42401476      14.73459451      15.00721691
H        4.21827317      26.56380577      15.34079690
H        1.48192229       8.59952058      15.02538913
C        0.00000000       4.94000000      12.50000001
C        0.71300000       6.17499999      12.50000001
C        0.00000000       7.41000000      12.50000001
C        0.71300000       8.64500002      12.50000001
C        2.13900000       6.17499999      12.50000001
C        2.85200000       7.41000000      12.50000001
C        2.13900000       8.64500002      12.50000001
C        2.85200000       4.94000000      12.50000001
C        3.56800000       6.16975605      17.50000000
C        0.00300000       7.40475607      17.50000000
C        3.56800000       8.63975609      17.50000000
C        0.00300000       9.87475605      17.50000000
C        1.42900000       7.40475607      17.50000000
C        2.14200000       8.63975609      17.50000000
C        1.42900000       9.87475605      17.50000000
C        2.14200000       6.16975605      17.50000000
O        3.51897405      13.67675390      14.86173686
H       32.73253649      11.53372887      15.10655028
H        3.93821466      10.70028896      14.28063797
O        3.60051912       3.63216660      14.99679326
H       31.08715552      11.42880551      14.80796061
H       24.93280835       4.63735082      15.01356540
O        3.35643111       6.16388594      15.03714960
H       30.74088054       2.59197742      15.33718550
H       33.86166626      38.13634620      14.24516157
O        1.36726133       4.92113014      14.83463377
H        1.66293278       2.25770721      14.33610583
H        1.53393138       5.00521105      15.74078920
C        0.00000000       9.87999999      12.50000001
C        0.71300000      11.11500001      12.50000001
C        0.00000000      12.35000002      12.50000001
C        0.71300000      13.58499999      12.50000001
C        2.13900000      11.11500001      12.50000001
C        2.85200000      12.35000002      12.50000001
C        2.13900000      13.58499999      12.50000001
C        2.85200000       9.87999999      12.50000001
C        3.56800000      11.10975607      17.50000000
C        0.00300000      12.34475609      17.50000000
C        3.56800000      13.57975606      17.50000000
C        0.00300000      14.81475607      17.50000000
C        1.42900000      12.34475609      17.50000000
C        2.14200000      13.57975606      17.50000000
C        1.42900000      14.81475607      17.50000000
C        2.14200000      11.10975607      17.50000000
O        1.66942577       9.88126521      15.03875263
H       33.29280029      17.68463184      15.07887459
H        8.02856446      10.31760554      14.90568472
O        1.37794351       7.61987887      14.96442174
H       25.09872057      12.15914272      14.54205154
H       32.03504641       4.62457569      14.51519672
O        3.63612027       8.64001474      14.81161854
H       12.87337113       0.84726618      15.02748112
H        7.89622504       4.96009748      14.84376698
O        1.42551912       2.57561129      15.17727950
H       31.57324661      16.27921614      14.82290369
H       31.43051783       9.76679192      15.66961409
C        0.00000000      14.82000001      12.50000001
C        0.71300000      16.05500003      12.50000001
C        0.00000000      17.28999999      12.50000001
C        0.71300000      18.52500001      12.50000001
C        2.13900000      16.05500003      12.50000001
C        2.85200000      17.28999999      12.50000001
C        2.13900000      18.52500001      12.50000001
C        2.85200000      14.82000001      12.50000001
C        3.56800000      16.04975609      17.50000000
C        0.00300000      17.28475606      17.50000000
C        3.56800000      18.51975608      17.50000000
C        0.00300000      19.75475609      17.50000000
C        1.42900000      17.28475606      17.50000000
C        2.14200000      18.51975608      17.50000000
C        1.42900000      19.75475609      17.50000000
C        2.14200000      16.04975609      17.50000000
O        1.36777507      12.37890646      14.84881218
H        3.71699071       8.16515377      15.67053630
H        6.92589821      19.17402442      14.87430378
O        3.55885544      16.19984266      15.01896233
H       28.99960758      14.54237246      15.02363964
H        2.85359825       9.22864482      14.83446142
O        3.66422493      11.24478932      15.05287921
H        1.01497456      10.01601071      14.37018851
H       30.78143643       7.48686720      15.83736869
O        3.58117926       1.22993230      15.00471799
H        3.99706493       6.67764993      14.62654372
H        3.73049150      33.62832092      14.14134008
C        0.00000000      19.75999998      12.50000001
C        0.71300000      20.99499999      12.50000001
C        0.00000000      22.23000001      12.50000001
C        0.71300000      23.46499998      12.50000001
C        2.13900000      20.99499999      12.50000001
C        2.85200000      22.23000001      12.50000001
C        2.13900000      23.46499998      12.50000001
C        2.85200000      19.75999998      12.50000001
C        3.56800000      20.98975606      17.50000000
C        0.00300000      22.22475608      17.50000000
C        3.56800000      23.45975610      17.50000000
C        0.00300000      24.69475606      17.50000000
C        1.42900000      22.22475608      17.50000000
C        2.14200000      23.45975610      17.50000000
C        1.42900000      24.69475606      17.50000000
C        2.14200000      20.98975606      17.50000000
O        1.46746059      19.71828186      15.11640477
H        1.38823251      33.44807909      15.02852140
H       33.56554256      22.07502280      14.84622777
O        1.29452406      37.11833026      15.14298748
H        3.30483860       4.03970064      14.15823015
H       33.44531222      31.22454334      14.23738182
O        3.57514843      38.26605372      15.04207372
H        4.32249796      35.56409453      14.94851509
H       32.53747871      30.24040134      15.17331094
O        1.47223516      34.60091445      14.95373689
H       33.11947984      35.91640034      15.67609338
H       24.50195397      30.63972295      14.35399761
C        0.00000000      24.70000000      12.50000001
C        0.71300000      25.93500001      12.50000001
C        0.00000000      27.16999998      12.50000001
C        0.71300000      28.40500000      12.50000001
C        2.13900000      25.93500001      12.50000001
C        2.85200000      27.16999998      12.50000001
C        2.13900000      28.40500000      12.50000001
C        2.85200000      24.70000000      12.50000001
C        3.56800000      25.92975608      17.50000000
C        0.00300000      27.16475604      17.50000000
C        3.56800000      28.39975606      17.50000000
C        0.00300000      29.63475608      17.50000000
C        1.42900000      27.16475604      17.50000000
C        2.14200000      28.39975606      17.50000000
C        1.42900000      29.63475608      17.50000000
C        2.14200000      25.92975608      17.50000000
O        3.57074755      33.21168198      14.96495851
H        7.06629565      36.13441668      14.58355775
H       31.53567049      34.47612484      15.63349701
O        3.73752714      23.68655010      15.02881377
H       31.35042125      31.46894194      15.19621208
H       25.73956547      23.89683017      15.51596589
O        3.57287461      26.04238672      14.76730508
H        5.70123658      22.59265020      14.04754110
H       30.01065423      17.99711735      14.61306035
O        1.28838731      24.82980446      15.07683676
H        4.76739762      32.27294436      14.93357369
H        5.01224738      18.94725751      15.14016492
C        0.00000000      29.64000002      12.50000001
C        0.71300000      30.87499998      12.50000001
C        0.00000000      32.11000000      12.50000001
C        0.71300000      33.34500002      12.50000001
C        2.13900000      30.87499998      12.50000001
C        2.85200000      32.11000000      12.50000001
C        2.13900000      33.34500002      12.50000001
C        2.85200000      29.64000002      12.50000001
C        3.56800000      30.86975605      17.50000000
C        0.00300000      32.10475607      17.50000000
C        3.56800000      33.33975608      17.50000000
C        0.00300000      34.57475605      17.50000000
C        1.42900000      32.10475607      17.50000000
C        2.14200000      33.33975608      17.50000000
C        1.42900000      34.57475605      17.50000000
C        2.14200000      30.86975605      17.50000000
O        1.55360684      29.69723433      14.89871179
H        5.75903828      33.90210024      15.23867810
H       10.57967373      37.11390415      15.50784341
O        1.58884502      27.23238878      14.88357759
H        7.03669809      28.22866400      14.86167009
H       27.27849229      28.21556932      14.78347378
O        3.75926750      28.42164097      14.87098388
H        2.91043260      18.34691579      15.54096607
H       28.36964958      32.68833681      14.93837243
O        1.61963835      22.39357199      15.04059218
H       33.23513019      28.88319800      14.18355734
H       33.33801151      20.89628742      15.69386736
C        0.00000000      34.57999998      12.50000001
C        0.71300000      35.81500000      12.50000001
C        0.00000000      37.05000002      12.50000001
C        0.71300000      38.28499999      12.50000001
C        2.13900000      35.81500000      12.50000001
C        2.85200000      37.05000002      12.50000001
C        2.13900000      38.28499999      12.50000001
C        2.85200000      34.57999998      12.50000001
C        3.56800000      35.80975607      17.50000000
C        0.00300000      37.04475609      17.50000000
C        3.56800000      38.27975605      17.50000000
C        0.00300000      39.51475607      17.50000000
C        1.42900000      37.04475609      17.50000000
C        2.14200000      38.27975605      17.50000000
C        1.42900000      39.51475607      17.50000000
C        2.14200000      35.80975607      17.50000000
O        1.36910042      32.31417008      15.00290159
H        1.13793948      35.14956968      15.64804441
H        5.97633715      35.22151154      15.51465447
O        3.43850450      35.83511562      14.89547718
H        2.41700635       0.70268151      15.13178661
H        4.83947695      29.76470034      14.98612061
O        3.53497540      30.81996044      14.93887549
H       31.67145490       1.04859572      15.07915071
H        7.99742346      17.67120183      14.74738776
O        3.62646863      21.05196397      15.02386276
H        0.06362442      18.93126709      15.47599260
H        0.09391244      25.51542393      15.08052079
C        4.27800000       0.00000000      12.50000001
C        4.99100000       1.23500000      12.50000001
C        4.27800000       2.47000000      12.50000001
C        4.99100000       3.70500000      12.50000001
C        6.41699997       1.23500000      12.50000001
C        7.13000001       2.47000000      12.50000001
C        6.41699997       3.70500000      12.50000001
C        7.13000001       0.00000000      12.50000001
C        7.84600001       1.22975607      17.50000000
C        4.28100000       2.46475607      17.50000000
C        7.84600001       3.69975607      17.50000000
C        4.28100000       4.93475607      17.50000000
C        5.70700000       2.46475607      17.50000000
C        6.41999999       3.69975607      17.50000000
C        5.70700000       4.93475607      17.50000000
C        6.41999999       1.22975607      17.50000000
O        5.67097897       0.05960277      14.90282582
H        6.95588399      16.64770219      15.04783325
H        4.47949264      38.73776595      15.15697940
O        5.83164575      17.04805286      14.87139884
H        7.97732028      15.64030376      14.15708095
H        5.26257155      14.05692124      14.69053696
O        7.87355429      18.67494532      14.88357434
H       28.08206786      21.72147722      14.96415255
H       28.89090978      10.53418295      14.30202941
O        5.73457519      14.71266707      15.04818598
H       10.21936347      20.31634382      15.54861595
H        9.99646466      23.20594945      14.86191250
C        4.27800000       4.94000000      12.50000001
C        4.99100000       6.17499999      12.50000001
C        4.27800000       7.41000000      12.50000001
C        4.99100000       8.64500002      12.50000001
C        6.41699997       6.17499999      12.50000001
C        7.13000001       7.41000000      12.50000001
C        6.41699997       8.64500002      12.50000001
C        7.13000001       4.94000000      12.50000001
C        7.84600001       6.16975605      17.50000000
C        4.28100000       7.40475607      17.50000000
C        7.84600001       8.63975609      17.50000000
C        4.28100000       9.87475605      17.50000000
C        5.70700000       7.40475607      17.50000000
C        6.41999999       8.63975609      17.50000000
C        5.70700000       9.87475605      17.50000000
C        6.41999999       6.16975605      17.50000000
O        7.92535980      13.75993492      14.85797200
H        8.93431916      11.64958435      14.94924637
H        2.20463390      11.91251319      14.71433610
O        7.73660347       3.91592299      14.84943479
H        6.16918127      37.83534121      15.10212762
H        5.10425075       2.87988426      14.49332783
O        7.90292563       6.24041477      14.79535054
H       17.23339652       2.99285794      14.94791675
H        1.27275977      38.16303536      15.18936705
O        5.59592786       4.92615942      14.82988336
H        5.60900830      20.44395965      14.91587569
H        7.58513108       6.35436746      15.66288128
C        4.27800000       9.87999999      12.50000001
C        4.99100000      11.11500001      12.50000001
C        4.27800000      12.35000002      12.50000001
C        4.99100000      13.58499999      12.50000001
C        6.41699997      11.11500001      12.50000001
C        7.13000001      12.35000002      12.50000001
C        6.41699997      13.58499999      12.50000001
C        7.13000001       9.87999999      12.50000001
C        7.84600001      11.10975607      17.50000000
C        4.28100000      12.34475609      17.50000000
C        7.84600001      13.57975606      17.50000000
C        4.28100000      14.81475607      17.50000000
C        5.70700000      12.34475609      17.50000000
C        6.41999999      13.57975606      17.50000000
C        5.70700000      14.81475607      17.50000000
C        6.41999999      11.10975607      17.50000000
O        5.64555331       9.86261078      15.01715978
H       14.49232374      10.81969687      15.07902632
H       33.98276252       1.92399626      15.48113417
O        5.74028020       7.36197615      14.86470330
H        5.67625096       8.12637791      15.41181352
H        6.70304593       7.32134858      14.54154199
O        7.74208694       8.73447535      14.90066806
H        6.71964207      24.53876620      14.72929737
H        3.39118061       2.24235355      14.97188563
O        5.85455937       2.50027215      15.00201550
H       34.19151343       6.77197423      15.15232209
H        6.93255354       9.26596097      14.75587714
C        4.27800000      14.82000001      12.50000001
C        4.99100000      16.05500003      12.50000001
C        4.27800000      17.28999999      12.50000001
C        4.99100000      18.52500001      12.50000001
C        6.41699997      16.05500003      12.50000001
C        7.13000001      17.28999999      12.50000001
C        6.41699997      18.52500001      12.50000001
C        7.13000001      14.82000001      12.50000001
C        7.84600001      16.04975609      17.50000000
C        4.28100000      17.28475606      17.50000000
C        7.84600001      18.51975608      17.50000000
C        4.28100000      19.75475609      17.50000000
C        5.70700000      17.28475606      17.50000000
C        6.41999999      18.51975608      17.50000000
C        5.70700000      19.75475609      17.50000000
C        6.41999999      16.04975609      17.50000000
O        5.81668569      12.34334621      14.83273980
H       10.60014707      11.87043962      14.42875256
H        6.44546300      39.29424254      14.44519551
O        7.94150117      16.22532223      14.93168302
H       12.19647208      12.64808121      14.95842883
H       29.37313344      13.28592250      14.22233453
O        7.97284184      11.29731674      14.98668366
H        7.82346080      12.87477901      15.15959977
H        8.21249377       8.71451793      14.10137167
O        8.06335268       1.23279245      15.14667971
H        1.04054083       7.47706253      14.09984227
H        8.95131272       2.23522948      14.92951147
C        4.27800000      19.75999998      12.50000001
C        4.99100000      20.99499999      12.50000001
C        4.27800000      22.23000001      12.50000001
C        4.99100000      23.46499998      12.50000001
C        6.41699997      20.99499999      12.50000001
C        7.13000001      22.23000001      12.50000001
C        6.41699997      23.46499998      12.50000001
C        7.13000001      19.75999998      12.50000001
C        7.84600001      20.98975606      17.50000000
C        4.28100000      22.22475608      17.50000000
C        7.84600001      23.45975610      17.50000000
C        4.28100000      24.69475606      17.50000000
C        5.70700000      22.22475608      17.50000000
C        6.41999999      23.45975610      17.50000000
C        5.70700000      24.69475606      17.50000000
C        6.41999999      20.98975606      17.50000000
O        5.78202978      19.53172744      14.95723427
H        7.79102096      39.34979006      15.30354567
H       14.27596637      27.24493394      14.15505744
O        5.70710450      36.98702782      14.88631500
H       32.33131771      37.64655550      15.06015405
H        5.04307348      37.24269668      14.32837027
O        7.66262055      38.37498982      15.07740825
H        4.73085778       9.46693435      14.70934575
H        6.38843750       4.69251164      15.41983879
O        5.61187099      34.66854536      14.82940401
H        4.39614774       4.22517650      15.25133924
H        8.05652116      29.69730441      14.96155984
C        4.27800000      24.70000000      12.50000001
C        4.99100000      25.93500001      12.50000001
C        4.27800000      27.16999998      12.50000001
C        4.99100000      28.40500000      12.50000001
C        6.41699997      25.93500001      12.50000001
C        7.13000001      27.16999998      12.50000001
C        6.41699997      28.40500000      12.50000001
C        7.13000001      24.70000000      12.50000001
C        7.84600001      25.92975608      17.50000000
C        4.28100000      27.16475604      17.50000000
C        7.84600001      28.39975606      17.50000000
C        4.28100000      29.63475608      17.50000000
C        5.70700000      27.16475604      17.50000000
C        6.41999999      28.39975606      17.50000000
C        5.70700000      29.63475608      17.50000000
C        6.41999999      25.92975608      17.50000000
O        7.81173907      33.39295258      14.91383313
H       18.07633235      36.47687078      14.37949823
H       30.32535986      32.81602525      14.96638043
O        7.75144686      23.57486655      15.04015623
H        9.05554810      14.39124335      15.33351962
H        6.94182849      23.07941771      15.36459748
O        7.96728922      26.08436572      14.87195731
H        0.64038430      31.68555372      15.33133744
H        8.10667808      25.11326346      14.99103702
O        5.81562280      24.92877312      14.68311244
H       12.49874176      26.43238596      14.38076230
H       14.20355398      20.82790363      14.65706123
C        4.27800000      29.64000002      12.50000001
C        4.99100000      30.87499998      12.50000001
C        4.27800000      32.11000000      12.50000001
C        4.99100000      33.34500002      12.50000001
C        6.41699997      30.87499998      12.50000001
C        7.13000001      32.11000000      12.50000001
C        6.41699997      33.34500002      12.50000001
C        7.13000001      29.64000002      12.50000001
C        7.84600001      30.86975605      17.50000000
C        4.28100000      32.10475607      17.50000000
C        7.84600001      33.33975608      17.50000000
C        4.28100000      34.57475605      17.50000000
C        5.70700000      32.10475607      17.50000000
C        6.41999999      33.33975608      17.50000000
C        5.70700000      34.57475605      17.50000000
C        6.41999999      30.86975605      17.50000000
O        5.84539712      29.72739871      14.86001763
H        9.96493361      30.07642371      15.49842054
H        3.53810998      20.12678415      14.78677457
O        5.82592518      27.25549707      15.08380283
H        5.31314501      24.40362519      15.26746164
H        1.78866544      24.87853520      14.30374164
O        7.93926991      28.47177614      15.06697718
H       18.41127750      38.74908858      14.68998522
H        3.42824775      27.71538035      14.29388818
O        5.71231710      22.24314157      15.01714387
H        1.42830211      13.43422664      14.83179701
H       11.24097348      29.05554331      14.73045489
C        4.27800000      34.57999998      12.50000001
C        4.99100000      35.81500000      12.50000001
C        4.27800000      37.05000002      12.50000001
C        4.99100000      38.28499999      12.50000001
C        6.41699997      35.81500000      12.50000001
C        7.13000001      37.05000002      12.50000001
C        6.41699997      38.28499999      12.50000001
C        7.13000001      34.57999998      12.50000001
C        7.84600001      35.80975607      17.50000000
C        4.28100000      37.04475609      17.50000000
C        7.84600001      38.27975605      17.50000000
C        4.28100000      39.51475607      17.50000000
C        5.70700000      37.04475609      17.50000000
C        6.41999999      38.27975605      17.50000000
C        5.70700000      39.51475607      17.50000000
C        6.41999999      35.80975607      17.50000000
O        5.78062434      32.20057197      14.92487814
H        0.78911322       0.61342857      14.80768702
H        0.14124810       3.52891018      14.66110875
O        7.85788905      35.69796681      15.03136215
H        3.32120904      36.68001624      15.31708526
H        3.87997154      12.78852185      14.68105973
O        8.15435016      30.72428995      15.16421784
H        7.82768575      31.31102766      14.52821863
H       15.91748667      27.91439849      14.42627224
O        7.87804675      21.17927646      14.87656541
H       16.36830893      15.99062879      15.84065903
H        9.17255812      31.42930016      14.94857233
C        8.55599998       0.00000000      12.50000001
C        9.26900002       1.23500000      12.50000001
C        8.55599998       2.47000000      12.50000001
C        9.26900002       3.70500000      12.50000001
C       10.69499999       1.23500000      12.50000001
C       11.40799998       2.47000000      12.50000001
C       10.69499999       3.70500000      12.50000001
C       11.40799998       0.00000000      12.50000001
C       12.12399997       1.22975607      17.50000000
C        8.55899999       2.46475607      17.50000000
C       12.12399997       3.69975607      17.50000000
C        8.55899999       4.93475607      17.50000000
C        9.98500002       2.46475607      17.50000000
C       10.69800000       3.69975607      17.50000000
C        9.98500002       4.93475607      17.50000000
C       10.69800000       1.22975607      17.50000000
O       10.02758362       0.13552807      14.83749868
H       13.93032226      17.82337387      14.34903608
H       12.79248727       5.65336502      15.31566310
O       10.11873705      17.35928107      14.99863381
H       11.44051533      19.19106556      14.93735659
H        6.95431685      14.22375807      14.97343634
O       12.25973225      18.72270022      14.91161354
H       16.76406060      10.89436556      15.61537450
H       12.05761309      21.70801440      15.66000684
O        9.99388344      14.73271696      15.05047143
H       19.07492308      20.23555860      14.39094332
H        3.53686804      15.25185065      14.98397845
C        8.55599998       4.94000000      12.50000001
C        9.26900002       6.17499999      12.50000001
C        8.55599998       7.41000000      12.50000001
C        9.26900002       8.64500002      12.50000001
C       10.69499999       6.17499999      12.50000001
C       11.40799998       7.41000000      12.50000001
C       10.69499999       8.64500002      12.50000001
C       11.40799998       4.94000000      12.50000001
C       12.12399997       6.16975605      17.50000000
C        8.55899999       7.40475607      17.50000000
C       12.12399997       8.63975609      17.50000000
C        8.55899999       9.87475605      17.50000000
C        9.98500002       7.40475607      17.50000000
C       10.69800000       8.63975609      17.50000000
C        9.98500002       9.87475605      17.50000000
C       10.69800000       6.16975605      17.50000000
O       12.25929420      13.59255075      14.77346163
H       13.47875830      14.28019723      14.69632967
H       13.20164436      16.56277439      15.16248979
O       12.20023231       3.70719306      15.10530127
H        9.05047930       0.63321928      14.87814678
H        9.93825099       3.85649477      14.93712200
O       12.08357162       6.19435758      14.92904956
H       15.39739229       8.07289031      14.98060928
H        9.66717360      10.18448360      15.65157127
O       10.02424271       4.95381513      14.99829494
H        5.37609933       5.95565981      15.07273681
H       10.90745514       0.75177080      14.83165657
C        8.55599998       9.87999999      12.50000001
C        9.26900002      11.11500001      12.50000001
C        8.55599998      12.35000002      12.50000001
C        9.26900002      13.58499999      12.50000001
C       10.69499999      11.11500001      12.50000001
C       11.40799998      12.35000002      12.50000001
C       10.69499999      13.58499999      12.50000001
C       11.40799998       9.87999999      12.50000001
C       12.12399997      11.10975607      17.50000000
C        8.55899999      12.34475609      17.50000000
C       12.12399997      13.57975606      17.50000000
C        8.55899999      14.81475607      17.50000000
C        9.98500002      12.34475609      17.50000000
C       10.69800000      13.57975606      17.50000000
C        9.98500002      14.81475607      17.50000000
C       10.69800000      11.10975607      17.50000000
O       10.06982678       9.79225685      14.87937123
H       14.79558132      12.56529256      14.26908380
H       13.80578298       7.62014654      14.18456748
O        9.84401906       7.50889065      15.08104062
H        5.71555580      15.68605429      14.60002349
H        6.67403800       3.00454523      14.72971552
O       12.18145782       8.60196596      15.00403501
H       13.07377555       8.95692470      15.04642545
H       14.53649622      15.29403866      14.26362121
O        9.89157822       2.66441224      14.83096675
H        2.62321131       6.75153373      15.11349825
H        9.89074340       8.76493407      14.96205913
C        8.55599998      14.82000001      12.50000001
C        9.26900002      16.05500003      12.50000001
C        8.55599998      17.28999999      12.50000001
C        9.26900002      18.52500001      12.50000001
C       10.69499999      16.05500003      12.50000001
C       11.40799998      17.28999999      12.50000001
C       10.69499999      18.52500001      12.50000001
C       11.40799998      14.82000001      12.50000001
C       12.12399997      16.04975609      17.50000000
C        8.55899999      17.28475606      17.50000000
C       12.12399997      18.51975608      17.50000000
C        8.55899999      19.75475609      17.50000000
C        9.98500002      17.28475606      17.50000000
C       10.69800000      18.51975608      17.50000000
C        9.98500002      19.75475609      17.50000000
C       10.69800000      16.04975609      17.50000000
O        9.99434771      12.29687515      15.03327043
H        6.69247051      11.94182132      14.72859094
H        9.82943991      13.06245108      14.50118768